<?xml version="1.0"?>
<VTKFile type="UnstructuredGrid"  version="0.1"  >
<UnstructuredGrid>
<Piece  NumberOfPoints="1256" NumberOfCells="2414">
<Points>
<DataArray  type="Float64"  NumberOfComponents="3"  format="ascii">0 0 0  0 1 0  1 1 0  1 0 0  1.1 -0.1 0  -0.1 -0.1 0  1.1 1.1 0  -0.1 1.1 0  0.5071910178714847 0.5178901603938577 0  0.6001132262018757 0.7279406623795807 0  0 0.9499999999997918 0  0 0.8999999999995836 0  0 0.8499999999996529 0  0 0.7999999999999998 0  0 0.7500000000003466 0  0 0.7000000000006934 0  0 0.6500000000010401 0  0 0.6000000000013869 0  0 0.5500000000017335 0  0 0.5000000000020587 0  0 0.4500000000018723 0  0 0.4000000000016644 0  0 0.3500000000014564 0  0 0.3000000000012483 0  0 0.2500000000010403 0  0 0.2000000000008322 0  0 0.1500000000006241 0  0 0.100000000000416 0  0 0.05000000000020799 0  0.04999999999989965 0 0  0.09999999999981467 0 0  0.1499999999997036 0 0  0.1999999999995579 0 0  0.2499999999994121 0 0  0.2999999999992664 0 0  0.3499999999991206 0 0  0.3999999999989749 0 0  0.4499999999988292 0 0  0.4999999999986943 0 0  0.5499999999988151 0 0  0.5999999999989468 0 0  0.6499999999990784 0 0  0.69999999999921 0 0  0.7499999999993417 0 0  0.7999999999994734 0 0  0.8499999999996051 0 0  0.8999999999997368 0 0  0.9499999999998684 0 0  1 0.04999999999989965 0  1 0.09999999999981467 0  1 0.1499999999997036 0  1 0.1999999999995579 0  1 0.2499999999994121 0  1 0.2999999999992664 0  1 0.3499999999991206 0  1 0.3999999999989749 0  1 0.4499999999988292 0  1 0.4999999999986943 0  1 0.5499999999988151 0  1 0.5999999999989468 0  1 0.6499999999990784 0  1 0.69999999999921 0  1 0.7499999999993417 0  1 0.7999999999994734 0  1 0.8499999999996051 0  1 0.8999999999997368 0  1 0.9499999999998684 0  0.9499999999997918 1 0  0.8999999999995836 1 0  0.8499999999996529 1 0  0.7999999999999998 1 0  0.7500000000003466 1 0  0.7000000000006934 1 0  0.6500000000010401 1 0  0.6000000000013869 1 0  0.5500000000017335 1 0  0.5000000000020587 1 0  0.4500000000018723 1 0  0.4000000000016644 1 0  0.3500000000014564 1 0  0.3000000000012483 1 0  0.2500000000010403 1 0  0.2000000000008322 1 0  0.1500000000006241 1 0  0.100000000000416 1 0  0.05000000000020799 1 0  -0.1 1.05000000000004 0  -0.1 1.000000000000079 0  -0.1 0.9500000000001624 0  -0.1 0.9000000000003032 0  -0.1 0.850000000000444 0  -0.1 0.8000000000005848 0  -0.1 0.7500000000007256 0  -0.1 0.7000000000008665 0  -0.1 0.6500000000010508 0  -0.1 0.6000000000012352 0  -0.1 0.5500000000014196 0  -0.1 0.500000000001539 0  -0.1 0.4500000000014195 0  -0.1 0.4000000000013 0  -0.1 0.3500000000011588 0  -0.1 0.3000000000010178 0  -0.1 0.2500000000008986 0  -0.1 0.2000000000007579 0  -0.1 0.1500000000006174 0  -0.1 0.1000000000005272 0  -0.1 0.05000000000040083 0  -0.1 2.671196597248127e-13 0  -0.1 -0.0499999999998666 0  -0.0500000000000906 -0.1 0  -1.730560139634463e-13 -0.1 0  0.04999999999975802 -0.1 0  0.09999999999961506 -0.1 0  0.1499999999994613 -0.1 0  0.199999999999302 -0.1 0  0.2499999999991446 -0.1 0  0.2999999999990088 -0.1 0  0.3499999999988296 -0.1 0  0.3999999999986936 -0.1 0  0.4499999999985143 -0.1 0  0.4999999999984002 -0.1 0  0.5499999999985247 -0.1 0  0.5999999999986493 -0.1 0  0.6499999999987955 -0.1 0  0.6999999999989417 -0.1 0  0.7499999999990659 -0.1 0  0.7999999999992116 -0.1 0  0.8499999999993573 -0.1 0  0.8999999999994526 -0.1 0  0.949999999999584 -0.1 0  0.9999999999997226 -0.1 0  1.049999999999861 -0.1 0  1.1 -0.0500000000000906 0  1.1 -1.730560139634463e-13 0  1.1 0.04999999999975802 0  1.1 0.09999999999961506 0  1.1 0.1499999999994613 0  1.1 0.199999999999302 0  1.1 0.2499999999991446 0  1.1 0.2999999999990088 0  1.1 0.3499999999988296 0  1.1 0.3999999999986936 0  1.1 0.4499999999985143 0  1.1 0.4999999999984002 0  1.1 0.5499999999985247 0  1.1 0.5999999999986493 0  1.1 0.6499999999987955 0  1.1 0.6999999999989417 0  1.1 0.7499999999990659 0  1.1 0.7999999999992116 0  1.1 0.8499999999993573 0  1.1 0.8999999999994526 0  1.1 0.949999999999584 0  1.1 0.9999999999997226 0  1.1 1.049999999999861 0  1.05000000000004 1.1 0  1.000000000000079 1.1 0  0.9500000000001624 1.1 0  0.9000000000003032 1.1 0  0.850000000000444 1.1 0  0.8000000000005848 1.1 0  0.7500000000007256 1.1 0  0.7000000000008665 1.1 0  0.6500000000010508 1.1 0  0.6000000000012352 1.1 0  0.5500000000014196 1.1 0  0.500000000001539 1.1 0  0.4500000000014195 1.1 0  0.4000000000013 1.1 0  0.3500000000011588 1.1 0  0.3000000000010178 1.1 0  0.2500000000008986 1.1 0  0.2000000000007579 1.1 0  0.1500000000006174 1.1 0  0.1000000000005272 1.1 0  0.05000000000040083 1.1 0  2.671196597248127e-13 1.1 0  -0.0499999999998666 1.1 0  0.6231015982240279 0.7165327773897777 0  0.6445847943645073 0.702834516655602 0  0.6643464547345491 0.6871595378007834 0  0.6819751615065461 0.6698236426802929 0  0.697621933557253 0.6510199739654123 0  0.7113472863935965 0.630745418321228 0  0.7230755259539318 0.6091101842028793 0  0.7327703316681503 0.5861417149310293 0  0.7401558734910452 0.5623376870685275 0  0.7451599456492266 0.5377509971810381 0  0.7477091663913311 0.5126280216816298 0  0.7477993593503579 0.48723815406379 0  0.7454271868104448 0.4618847785839416 0  0.7405956434890625 0.4368098708816701 0  0.7333262508489372 0.4123180242838339 0  0.7236543709362165 0.3888084400691081 0  0.7115829661235624 0.3663997610036338 0  0.6973306698147594 0.3455195251172378 0  0.6809391713886701 0.3262997378367001 0  0.6627870123942792 0.3090450413710006 0  0.6434060907220905 0.2939996381251564 0  0.6226487397673631 0.28088305998757 0  0.600837134673921 0.2699148502267436 0  0.5781916999842505 0.2611235118289297 0  0.55467560949191 0.2544420328569122 0  0.5304525613544918 0.250139714220537 0  0.5057017051485018 0.2484068973985851 0  0.480471883060966 0.2492814764055367 0  0.4553781342409527 0.252729447665319 0  0.4305939008073253 0.2587880480320013 0  0.4064652247954225 0.2672903747009399 0  0.3832731401291549 0.2783028407282107 0  0.3612946979174982 0.2915314914213875 0  0.3407694495994564 0.3068359293126467 0  0.3219237530477878 0.3240270342959665 0  0.304939839299911 0.3428680427781398 0  0.2899232284273053 0.3631453368560524 0  0.277437683318184 0.3843824935998583 0  0.2672697958600355 0.4065676224015546 0  0.2595356151428156 0.4292212396236899 0  0.254190696617173 0.4520375964205149 0  0.2510579236183249 0.4744977240443658 0  0.2498579230221677 0.4955344828048175 0  0.2503994334950594 0.5151170835970917 0  0.2524687318727222 0.535000980859787 0  0.2565634712015011 0.5570547498177811 0  0.2627418941940892 0.5795994336438053 0  0.271234437385053 0.6019652934203554 0  0.2824199741672731 0.623899157715148 0  0.2961098084343441 0.6448161819376788 0  0.3124377849757379 0.664539419929704 0  0.3309043078882711 0.6826622700202148 0  0.3512717357170544 0.6989703335958057 0  0.373273621483536 0.7131878468286897 0  0.3967070200563532 0.7251004097231093 0  0.4212488194084772 0.7345171831155294 0  0.4466294220411687 0.7415387243273861 0  0.4724723086185236 0.746019185105284 0  0.4986778337659273 0.7477854993941335 0  0.5248436908177116 0.7468459153745755 0  0.5506148252472534 0.7431668443677082 0  0.5758347992618326 0.7368496379146335 0  0.2960349179966583 0.595188383665338 0  0.2913311817376645 0.406700982494748 0  0.6894267759301046 0.6320110384375203 0  0.7203467201604027 0.5478795030121708 0  0.605378277829041 0.7011435922937739 0  0.329305107533001 0.3506466502567375 0  0.3849506936796874 0.306503681568927 0  0.4503502804418523 0.2788045366159595 0  0.541778834489518 0.2730584258199794 0  0.6536502167058106 0.3293717043271866 0  0.338018786037188 0.657914313060011 0  0.3941902852624483 0.6957877592756158 0  0.7248802580763538 0.4774302189651798 0  0.7090904485498666 0.4081019725213361 0  0.2706889106183292 0.4699074461071923 0  0.536776607375262 0.7213905565379917 0  0.4635522509242719 0.720243547134126 0  0.6002908787831613 0.2932591749038231 0  0.2725043981536733 0.5398684003247901 0  0.6857127198970249 0.3690339236879131 0  0.4957776092522653 0.2694635957487521 0  0.6448605707885063 0.6786763184839359 0  0.7099807834684657 0.5914327521872548 0  0.2657304640804035 0.5068268195878216 0  0.4062569156104482 0.2943002423050356 0  0.4066388042803888 0.32170586402653 0  0.3874235983658407 0.3345484606067554 0  0.4094432896362744 0.3495950281666707 0  0.3891987801026287 0.3636862188417134 0  0.4095624416400228 0.3769371553405036 0  0.4356739316964833 0.3668274502114418 0  0.3915813754125386 0.3948324383435145 0  0.4226167321495889 0.4135015587307582 0  0.3922454898475974 0.4346627912117578 0  0.4602610354157073 0.4073714319404624 0  0.4765098337245331 0.3601691684148964 0  0.5023792866539182 0.4069889136322236 0  0.5225276435429375 0.3648064509966441 0  0.5456801737896628 0.4082564427190698 0  0.5643715238197915 0.3681658443254494 0  0.5880567401276851 0.409416736113925 0  0.3691031041489731 0.4112240895147931 0  0.3628201637336443 0.4473287723924308 0  0.3923072713648041 0.4771851801417946 0  0.3635236429893997 0.4935294334138052 0  0.3897170349990058 0.5196233825075243 0  0.3600880207291039 0.5351753381301072 0  0.3841138906314732 0.5610021570619429 0  0.336343557428654 0.5097123662409255 0  0.356289166799024 0.5755457644061208 0  0.3757774613749158 0.5977748773310178 0  0.4048597631235057 0.5906054850262417 0  0.6030187449946711 0.3744894562772608 0  0.6280718326337786 0.403927955496908 0  0.6101575706483717 0.4395520799696825 0  0.6463833360430778 0.4336962415638069 0  0.6355141375391358 0.4703314886733613 0  0.543179417434696 0.3424960998836317 0  0.4040674240777777 0.6218326498165093 0  0.4301420887788725 0.6164753667412231 0  0.5892842876334846 0.4780335123337102 0  0.6137899006937576 0.5089816585371284 0  0.6496584485998027 0.4999067384283417 0  0.6444969830847362 0.5393131603540573 0  0.5965055107289532 0.5488181154529199 0  0.6240816999537838 0.5823422869307082 0  0.5808004652098461 0.5900335939869277 0  0.607721127813865 0.6245919293808064 0  0.566451037994899 0.6365470296252873 0  0.5414791117920249 0.6014143
[...]
<PointData  Scalars="u"> 
<DataArray  type="Float64"  Name="u"  format="ascii">0.0000000000000000e+00  0.0000000000000000e+00  0.0000000000000000e+00  0.0000000000000000e+00  0.0000000000000000e+00  0.0000000000000000e+00  0.0000000000000000e+00  0.0000000000000000e+00  3.5323244524721192e-01  3.1768171440622384e-01  0.0000000000000000e+00  0.0000000000000000e+00  0.0000000000000000e+00  0.0000000000000000e+00  0.0000000000000000e+00  0.0000000000000000e+00  0.0000000000000000e+00  0.0000000000000000e+00  0.0000000000000000e+00  0.0000000000000000e+00  0.0000000000000000e+00  0.0000000000000000e+00  0.0000000000000000e+00  0.0000000000000000e+00  0.0000000000000000e+00  0.0000000000000000e+00  0.0000000000000000e+00  0.0000000000000000e+00  0.0000000000000000e+00  0.0000000000000000e+00  0.0000000000000000e+00  0.0000000000000000e+00  0.0000000000000000e+00  0.0000000000000000e+00  0.0000000000000000e+00  0.0000000000000000e+00  0.0000000000000000e+00  0.0000000000000000e+00  0.0000000000000000e+00  0.0000000000000000e+00  0.0000000000000000e+00  0.0000000000000000e+00  0.0000000000000000e+00  0.0000000000000000e+00  0.0000000000000000e+00  0.0000000000000000e+00  0.0000000000000000e+00  0.0000000000000000e+00  0.0000000000000000e+00  0.0000000000000000e+00  0.0000000000000000e+00  0.0000000000000000e+00  0.0000000000000000e+00  0.0000000000000000e+00  0.0000000000000000e+00  0.0000000000000000e+00  0.0000000000000000e+00  0.0000000000000000e+00  0.0000000000000000e+00  0.0000000000000000e+00  0.0000000000000000e+00  0.0000000000000000e+00  0.0000000000000000e+00  0.0000000000000000e+00  0.0000000000000000e+00  0.0000000000000000e+00  0.0000000000000000e+00  0.0000000000000000e+00  0.0000000000000000e+00  0.0000000000000000e+00  0.0000000000000000e+00  0.0000000000000000e+00  0.0000000000000000e+00  0.0000000000000000e+00  0.0000000000000000e+00  0.0000000000000000e+00  0.0000000000000000e+00  0.0000000000000000e+00  0.0000000000000000e+00  0.0000000000000000e+00  0.0000000000000000e+00  0.0000000000000000e+00  0.0000000000000000e+00  0.0000000000000000e+00  0.0000000000000000e+00  0.0000000000000000e+00  0.0000000000000000e+00  0.0000000000000000e+00  0.0000000000000000e+00  0.0000000000000000e+00  0.0000000000000000e+00  0.0000000000000000e+00  0.0000000000000000e+00  0.0000000000000000e+00  0.0000000000000000e+00  0.0000000000000000e+00  0.0000000000000000e+00  0.0000000000000000e+00  0.0000000000000000e+00  0.0000000000000000e+00  0.0000000000000000e+00  0.0000000000000000e+00  0.0000000000000000e+00  0.0000000000000000e+00  0.0000000000000000e+00  0.0000000000000000e+00  0.0000000000000000e+00  0.0000000000000000e+00  0.0000000000000000e+00  0.0000000000000000e+00  0.0000000000000000e+00  0.0000000000000000e+00  0.0000000000000000e+00  0.0000000000000000e+00  0.0000000000000000e+00  0.0000000000000000e+00  0.0000000000000000e+00  0.0000000000000000e+00  0.0000000000000000e+00  0.0000000000000000e+00  0.0000000000000000e+00  0.0000000000000000e+00  0.0000000000000000e+00  0.0000000000000000e+00  0.0000000000000000e+00  0.0000000000000000e+00  0.0000000000000000e+00  0.0000000000000000e+00  0.0000000000000000e+00  0.0000000000000000e+00  0.0000000000000000e+00  0.0000000000000000e+00  0.0000000000000000e+00  0.0000000000000000e+00  0.0000000000000000e+00  0.0000000000000000e+00  0.0000000000000000e+00  0.0000000000000000e+00  0.0000000000000000e+00  0.0000000000000000e+00  0.0000000000000000e+00  0.0000000000000000e+00  0.0000000000000000e+00  0.0000000000000000e+00  0.0000000000000000e+00  0.0000000000000000e+00  0.0000000000000000e+00  0.0000000000000000e+00  0.0000000000000000e+00  0.0000000000000000e+00  0.0000000000000000e+00  0.0000000000000000e+00  0.0000000000000000e+00  0.0000000000000000e+00  0.0000000000000000e+00  0.0000000000000000e+00  0.0000000000000000e+00  0.0000000000000000e+00  0.0000000000000000e+00  0.0000000000000000e+00  0.0000000000000000e+00  0.0000000000000000e+00  0.0000000000000000e+00  0.0000000000000000e+00  0.0000000000000000e+00  0.0000000000000000e+00  0.0000000000000000e+00  0.0000000000000000e+00  0.0000000000000000e+00  0.0000000000000000e+00  0.0000000000000000e+00  0.0000000000000000e+00  0.0000000000000000e+00  0.0000000000000000e+00  0.0000000000000000e+00  0.0000000000000000e+00  0.0000000000000000e+00  0.0000000000000000e+00  3.1822374446120433e-01  3.1855304954919961e-01  3.1812680191586784e-01  3.1819665491337307e-01  3.1837427489780967e-01  3.1831035486624298e-01  3.1848665702687412e-01  3.1849389310745335e-01  3.1795240583576873e-01  3.1778830391055052e-01  3.1767449484155463e-01  3.1766930715279967e-01  3.1766273444105536e-01  3.1738979653933702e-01  3.1697915394595289e-01  3.1684133087062105e-01  3.1683808762861621e-01  3.1664421031846568e-01  3.1675890609209845e-01  3.1687214070308828e-01  3.1730772988744349e-01  3.1738868905530621e-01  3.1714256227884469e-01  3.1695765092391032e-01  3.1625829118190341e-01  3.1564419888405432e-01  3.1580936381466118e-01  3.1619425231462822e-01  3.1625600931698711e-01  3.1678026086676958e-01  3.1675284856913044e-01  3.1728340147625095e-01  3.1766883086440095e-01  3.1795440974712963e-01  3.1832906667444977e-01  3.1854647588301715e-01  3.1787416129078500e-01  3.1772702312897966e-01  3.1773166733763264e-01  3.1774710693735303e-01  3.1787471180447069e-01  3.1773124088200855e-01  3.1741008143058597e-01  3.1784874260687296e-01  3.1804439519556371e-01  3.1828857480104628e-01  3.1764362795918699e-01  3.1695291565279243e-01  3.1735337285160586e-01  3.1736786703409248e-01  3.1836010850218788e-01  3.1876395261221802e-01  3.1862481935163739e-01  3.1837904588680510e-01  3.1848245118785296e-01  3.1886402389962332e-01  3.1849652570625131e-01  3.1786764513731558e-01  3.1783158380723392e-01  3.1774955617900025e-01  3.1777044178279362e-01  3.1762277233435504e-01  3.3246418017303109e-01  3.3158536204500733e-01  3.3074682563182062e-01  3.3184811597814923e-01  3.3181523669745877e-01  3.3204070635746724e-01  3.3194122087188038e-01  3.3124798395396754e-01  3.3027459501320672e-01  3.3053466511642982e-01  3.3237647987859487e-01  3.3299575934102765e-01  3.3153141196007363e-01  3.3092121753559112e-01  3.3068918428296024e-01  3.3222581105406712e-01  3.3252355239207559e-01  3.3068936268261007e-01  3.3080002417400145e-01  3.3133287137287531e-01  3.3016253768290793e-01  3.3113244452162865e-01  3.3126293590588368e-01  3.2992170676462634e-01  3.3147520188887747e-01  3.3492633037548741e-01  3.3516087295355612e-01  3.3802925100820547e-01  3.3839834338912966e-01  3.4071786219240902e-01  3.4104163448107061e-01  3.4108532317657170e-01  3.4552228072067259e-01  3.4466521434390640e-01  3.4768243628049933e-01  3.4178253634653927e-01  3.4870613633358882e-01  3.4246980545240807e-01  3.4747903881663328e-01  3.4132660571150841e-01  3.4455341677464485e-01  3.4034419551194073e-01  3.4205853328446723e-01  3.4670992949334828e-01  3.4375040365235210e-01  3.4625164552595350e-01  3.4226066003903288e-01  3.4398838450160540e-01  3.3995650651415110e-01  3.4002785039204442e-01  3.4057496762658429e-01  3.4360638542314897e-01  3.3952280552234737e-01  3.3955972699892972e-01  3.4442056464971643e-01  3.3970842875724111e-01  3.4238080004573124e-01  3.3875988588657296e-01  3.4058483556625452e-01  3.4332308462842503e-01  3.4827708349333469e-01  3.4597414544722249e-01  3.4090312694343117e-01  3.4121968551429444e-01  3.4712605661995566e-01  3.4138147079923842e-01  3.4580306752821499e-01  3.3917720086892555e-01  3.4110566051232233e-01  3.4686505097627768e-01  3.4180752422816535e-01  3.3768144507117032e-01  3.4611284100250234e-01  3.4089630685354005e-01  3.3792426552827193e-01  3.4928088298852572e-01  3.3815714148151910e-01  3.3642026038325262e-01  3.3480607338757895e-01  3.3743038946476778e-01  3.3605630934516384e-01  3.3846228967677811e-01  3.4845847178386830e-01  3.3500467110076271e-01  3.3753382862397013e-01  3.3751886857306118e-01  3.3651283430288897e-01  3.3441398037590009e-01  3.3763000919840963e-01  3.3650666822459147e-01  3.3807897265710163e-01  3.3564707133102933e-01  3.3584502064665095e-01  3.3823038517921267e-01  3.3419812670112647e-01  3.3576742820468664e-01  3.3462119908132731e-01  3.3679941571111555e-01  3.3812983990065032e-01  3.3553441783989235e-01  3.3770710479474259e-01  3.3547952851670182e-01  3.3725116124258409e-01  3.3541082505161707e-01  3.3517739532653607e-01  3.3673572353066056e-01  3.3391922391314693e-01  3.3937714370784938e-01  3.3688152969236951e-01  3.3669483823577911e-01  3.3454757547476749e-01  3.3584804398980689e-01  3.3374722222205067e-01  3.3520839264621788e-01  3.3904075777295334e-01  3.3387096089094992e-01  3.3319275850855867e-01  3.3468512185112947e-01  3.5076067757447654e-01  3.3170031412477935e-01  3.3633224644794468e-01  3.5095295706468183e-01  3.4218104536495786e-01  3.3754237929096709e-01  3.3558275396133913e-01  3.3796574591769601e-01  3.3773849953914697e-01  3.3515217646812440e-01  3.3558126642370983e-01  3.5031560939378387e-01  3.3417578652414709e-01  3.3200801402741137e-01  3.3617468829782549e-01  3.3432489097091833e-01  3.3198872317030464e-01  3.4958215119511488e-01  3.3302189995553899e-01  3.3246108985271061e-01  3.3200603914084709e-01  3.3099636456835735e-01  3.3127145778221873e-01  3.3165659818612064e-01  3.3493570924902782e-01  3.3110026709952783e-01  3.3792346741365320e-01  3.3122150814751755e-01  3.3451846528468226e-01  3.3402673538551358e-01  3.3204297600574362e-01  3.3122983202871281e-01  3.3494463824177573e-01  3.3099015821263106e-01  3.3043635687308082e-01  3.3083935655662222e-01  3.3706868720831934e-01  3.3532692861622948e-01  3.3189316157113247e-01  3.3234538376889283e-01  3.3381257953065380e-01  3.3101121211392898e-01  3.3432638069253040e-01  3.3153903443731303e-01  3.3139418481159100e-01  3.4745295269941423e-01  3.3536206194705642e-01  3.3007774960311298e-01  3.3514091288442172e-01  3.3417563584286131e-01  3.3167217431557072e-01  3.2970142914324685e-01  3.3254832397250628e-01  3.3174141220937686e-01  3.4897994987519299e-01  3.3795520368889514e-01  3.3109223379339064e-01  3.3111290815835587e-01  3.3075257415733228e-01  3.2958076955495946e-01  3.3490515358075595e-01  3.4812229297330499e-01  3.5199208017650241e-01  3.3189372310926846e-01  3.3322377873032072e-01  3.3318822602871617e-01  3.3284399925042862e-01  3.3903487834540724e-01  3.3057098890062220e-01  3.5022871595492133e-01  3.3787274593354943e-01  3.3319835065351600e-01  3.2957655807003233e-01  3.5260194905135062e-01  3.3435873990276516e-01  3.3479932196615075e-01  3.3367643550496140e-01  3.3300663064090102e-01  3.3066502467194375e-01  3.3319819045264765e-01  3.3281462309517712e-01  3.3255908499131709e-01  3.3002495129876241e-01  3.2951410986244334e-01  3.3631999842202204e-01  3.3675696980864839e-01  3.3414034500313089e-01  3.3082016120704411e-01  3.3347720523009911e-01  3.2877094419521796e-01  3.3896988706042314e-01  3.3257402533801611e-01  3.3466136432352739e-01  3.3452177305720010e-01  3.4801735067699940e-01  3.3661822291610199e-01  3.3115773275855181e-01  3.3404295737076872e-01  3.3190921995391143e-01  3.2832640702564092e-01  3.5193139056632539e-01  3.3569557919660131e-01  3.3375629572865323e-01  3.2843330629664380e-01  3.5090035862773727e-01  3.3314860902030147e-01  3.3288804743733064e-01  3.3689223146516811e-01  3.3266129034780245e-01  3.3825673466865119e-01  3.3766337098971599e-01  3.3287125037937521e-01  3.3541253386221220e-01  3.3335976874678558e-01  3.3795552066247392e-01  3.3925574221712063e-01  3.3367380322545853e-01  3.3296949330007497e-01  3.3723962123714668e-01  3.3465358155250863e-01  3.3816263516846773e-01  3.3291558590229287e-01  3.3826535013124104e-01  3.3468527553935340e-01  3.2991390950898236e-01  3.3419686384524699e-01  3.3724206840127041e-01  3.3773475247258633e-01  3.5057613568796048e-01  3.3692499610274701e-01  3.4038260775833729e-01  3.3867311153398350e-01  3.3772189117191476e-01  3.3860910265413074e-01  3.3979202198299951e-01  3.3982740009827778e-01  3.3844562101035552e-01  3.3169016936677770e-01  2.9374557028152976e-01  2.9462191075825478e-01  2.8652680236722200e-01  2.8495625026960081e-01  2.8692878002790545e-01  2.8893141616867812e-01  2.9028048971989734e-01  2.8396063434391378e-01  2.9190438679193748e-01  2.8576069781514718e-01  2.8981191421288904e-01  2.8847783965977442e-01  2.9311115649837965e-01  2.9042456864435967e-01  2.8714963134988525e-01  1.2351260153328138e-02  1.4655103997800688e-02  2.9067916864039539e-01  2.9095445957732824e-01  1.4347867469261519e-02  1.8060646026293627e-02  1.5783487009249211e-02  2.9140541183130814e-01  1.4708549007408474e-02  1.7466758909438947e-02  2.8714907600338246e-01  2.8276009129098356e-01  2.0721033034436821e-02  2.8535405809505332e-01  1.9411706673642407e-02  2.4139136430457994e-02  2.8917389885095374e-01  2.8381942405412602e-01  2.8851721300422889e-01  2.9182882398773757e-02  2.8231080301073061e-02  3.0413531260510954e-02  3.0947191511054135e-02  2.7481312535712604e-01  3.0842637172804995e-02  2.9481019681899347e-02  3.2509346373484946e-02  3.8127635047572050e-02  3.8030950822013208e-02  2.5540807598429402e-02  6.3377852675037052e-03  6.0641996059295922e-03  8.5655331566499137e-03  8.4066887452146129e-03  3.9052524616527910e-02  4.3790381114712548e-02  5.7124023447371755e-03  6.4782889281415450e-03  6.6963159004794865e-03  8.0359176358074640e-03  2.7062965193640187e-01  2.2761518113760013e-01  2.1938494530094085e-01  2.3047022650600935e-01  1.7670717200632460e-01  1.6427016677194528e-01  1.2550980721781502e-01  2.0178087067250008e-01  1.5336732874600253e-01  1.7631594580416998e-01  1.3421118664412945e-01  1.2780492996725795e-01  1.5501976892382138e-01  1.0402472173305573e-01  1.2081253131951253e-01  1.6574976098987984e-01  1.4066627587674782e-01  1.7967452039731882e-01  1.4426448970145883e-01  1.0793859358041441e-01  1.1468032947790935e-01  1.5800691542489248e-01  1.2181262971041637e-01  1.5773205566395998e-01  1.2351348304808973e-01  1.6052213262930715e-01  1.2133137451899072e-01  9.2316431283075623e-02  1.5683648261869110e-01  1.1579194640917685e-01  1.4341631420030748e-01  1.0596233838601889e-01  1.3076554661141640e-01  8.2881246888487831e-02  8.8880289792949665e-02  7.2809997479631086e-02  1.7217948376452449e-01  1.6217692639095022e-01  1.1660832896754576e-01  1.4003222824806391e-01  2.1882287542440604e-01  1.9786374525060030e-01  2.0592580589340129e-01  1.8874331591241170e-01  9.8649984356686884e-02  1.1981101980530554e-01  1.6450275981967116e-01  1.4119100091660972e-01  1.8913176170899387e-01  1.6412246063288288e-01  1.1122062000415357e-01  1.2865136324832499e-01  1.8379910002728678e-01  1.5456099751833177e-01  1.0388311321898809e-01  1.1886513884352783e-01  1.6477099470573278e-01  1.2927642251946372e-01  1.7117272717541360e-01  1.4062159976002264e-01  1.8049410961720599e-01  1.3990369595431967e-01  1.7494497362332992e-01  1.3641364789758204e-01  1.7125965600704263e-01  1.2717782221310667e-01  1.5481188892314840e-01  1.1511460426761971e-01  1.3787592403154006e-01  1.0065674561318803e-01  1.1891335908800796e-01  8.1424890561020979e-02  6.9370693896454533e-02  1.0241670265762212e-01  1.6363386400633773e-01  1.3461246917336939e-01  9.8338756373317515e-02  1.1100882343176301e-01  1.6078932846126245e-01  1.2328127923615992e-01  1.6562099953706863e-01  1.3042345602270392e-01  5.3821141660605872e-02  7.6052368258372430e-02  1.7150124733377994e-01  1.3483229552671896e-01  1.8143746997072188e-01  1.3761116911331348e-01  1.8417821605986090e-01  1.3853418036850018e-01  1.8282824268577028e-01  1.3515451363322939e-01  1.7006835164870249e-01  1.2754942545855705e-01  1.6557795353252980e-01  1.1936960742063955e-01  1.5197336947942677e-01  1.0792675092773098e-01  1.3153656131202895e-01  9.3271981973605839e-02  1.1280046832408983e-01  7.7428896737111119e-02  9.3133585112302714e-02  1.2991322783235804e-01  1.0607464589693442e-01  7.4087774495755848e-02  8.3231866074713584e-02  1.1526163068575521e-01  8.8547735856896126e-02  1.1940815167757579e-01  8.9749078404796054e-02  1.1883177803668518e-01  8.7354162866458307e-02  1.1397413020459621e-01  6.0899612085817054e-02  1.5457266063843336e-01  8.2660105640276690e-02  1.0637278216980398e-01  1.4409534176416511e-01  1.3082180608934252e-01  9.4643924812432431e-02  1.7441913695097999e-01  9.2755406675399388e-02  1.1700690306851035e-01  1.5866629173393712e-01  1.4053729552871513e-01  9.9738644751054803e-02  1.2096392052837683e-01  1.6387125091341431e-01  1.4186801085910505e-01  1.9079035306340711e-01  1.6199761268239768e-01  1.2067997050204178e-01  1.4383152903664506e-01  1.0013629314555204e-01  1.1603632555556959e-01  1.5552119337136855e-01  1.2913998028201737e-01  1.6768236594431987e-01  1.4092470439148785e-01  1.0536421496615032e-01  1.1426324499415796e-01  1.4945830169663729e-01  1.2006018956331559e-01  1.5417847119404049e-01  1.2312794747966437e-01  9.2959725792850875e-02  9.3701603463910904e-02  1.2269395859100514e-01  6.8195529714197817e-02  9.1541565439988398e-02  1.1852516800794725e-01  8.3159518086981590e-02  1.5494162134947642e-01  1.4704244764714711e-01  1.1046124274111760e-01  1.4278492322827460e-01  1.8844534178163141e-01  1.9780303789581513e-01  1.9365214220079680e-01  9.7775194044567804e-02  4.4139417384461123e-02  7.3888045786258738e-02  6.2391621887654347e-02  5.5568558685214826e-02  2.1019974332305760e-01  9.6979014643468572e-02  9.9139967112461660e-02  1.2584981001090748e-01  7.6459107205869972e-02  2.1075793100091320e-01  1.9344079662430841e-01  9.2673134654129671e-02  1.7198815609176299e-01  1.4878023021399264e-01  5.9671301358405655e-02  8.1962168165056221e-02  5.9473012307519210e-02  2.1010765145234159e-01  2.3778804094592340e-01  2.2911718649214516e-01  8.0128728697403326e-02  1.0021377741286978e-01  6.6554070286401312e-02  4.5540408553039188e-02  4.6965295595211731e-02  6.6664267461535073e-02  2.9834684244469507e-02  3.2059128103658872e-02  6.3750955664063705e-02  6.1541081265392011e-02  7.9685007303302108e-02  2.9504136447798795e-02  4.4686383411358131e-02  5.5537759484020580e-02  6.1819048804888373e-02  3.9971429224160478e-02  4.3211896719649860e-02  4.3278734663080312e-02  2.0276617951823256e-01  2.1023158960274244e-01  2.0593565535222083e-01  2.2013589366322112e-01  2.1418529735522357e-01  2.1092227604800626e-01  2.3160375534723412e-01  9.1149914064476353e-02  8.1141143704353560e-02  2.2864327066284804e-01  4.7356937342066564e-02  8.9690970493444586e-02  2.2235022362591397e-01  2.1926599788320472e-01  4.1447630719399366e-02  2.5639368607337974e-02  2.2263305421812382e-01  2.4834030096540124e-01  2.3914883568820372e-01  2.6867439166507662e-01  2.2502812504682868e-01  2.6280418656810606e-01  4.5478892474268784e-02  3.3398108796778549e-02  2.3208962665551619e-01  8.3312158073714185e-02  8.3071151085941070e-02  2.0346502365479305e-01  7.8480416001855624e-02  4.8565126334982743e-02  5.2178718798999137e-02  4.1723656818124497e-02  2.8305748190970137e-01  2.4963050964398309e-01  2.4869375136307409e-01  2.4452567853143536e-01  2.0572119810257414e-01  2.4866554262288734e-01  2.0449576189109023e-01  2.1051768487993169e-01  2.3048079107668779e-01  2.1061417283546230e-01  2.3864230966896768e-01  2.1977961462780379e-01  2.0703285738594476e-01  2.2278413598663602e-01  1.9143828916888389e-01  2.3459693449572611e-01  2.8402247729482766e-01  2.7423471156261509e-01  2.3104610422074875e-01  2.1564632897762623e-01  2.5405201812900319e-01  2.4280478547089698e-01  2.8733921099211002e-01  1.7916645399688760e-02  2.8132797062536530e-01  2.8293577045811247e-01  2.3907219309104995e-02  2.4150767007991777e-01  1.9288975685294010e-01  2.3195405757123685e-01  2.4106339212834577e-02  1.7400509385848145e-01  2.3048295009714812e-02  2.6900747501026070e-02  4.4186756367215620e-02  2.3866726777700884e-02  4.3057656817301858e-02  2.8905360199213376e-01  2.5492336509949992e-01  2.5441740503623705e-01  2.4806997144545379e-01  2.1507401155385708e-01  2.1720891387744842e-01  2.7205092434271161e-01  2.3299447033740575e-01  2.1290110773556609e-01  1.4896765606033599e-02  1.6093505134709551e-01  2