<?xml version="1.0"?>
<VTKFile type="UnstructuredGrid"  version="0.1"  >
<UnstructuredGrid>
<Piece  NumberOfPoints="1078" NumberOfCells="2058">
<Points>
<DataArray  type="Float64"  NumberOfComponents="3"  format="ascii">0 0 0  0 1 0  1 1 0  1 0 0  1.1 -0.1 0  -0.1 -0.1 0  1.1 1.1 0  -0.1 1.1 0  0.4832954376765175 0.5396341019512978 0  0 0.9499999999997918 0  0 0.8999999999995836 0  0 0.8499999999996529 0  0 0.7999999999999998 0  0 0.7500000000003466 0  0 0.7000000000006934 0  0 0.6500000000010401 0  0 0.6000000000013869 0  0 0.5500000000017335 0  0 0.5000000000020587 0  0 0.4500000000018723 0  0 0.4000000000016644 0  0 0.3500000000014564 0  0 0.3000000000012483 0  0 0.2500000000010403 0  0 0.2000000000008322 0  0 0.1500000000006241 0  0 0.100000000000416 0  0 0.05000000000020799 0  0.04999999999989965 0 0  0.09999999999981467 0 0  0.1499999999997036 0 0  0.1999999999995579 0 0  0.2499999999994121 0 0  0.2999999999992664 0 0  0.3499999999991206 0 0  0.3999999999989749 0 0  0.4499999999988292 0 0  0.4999999999986943 0 0  0.5499999999988151 0 0  0.5999999999989468 0 0  0.6499999999990784 0 0  0.69999999999921 0 0  0.7499999999993417 0 0  0.7999999999994734 0 0  0.8499999999996051 0 0  0.8999999999997368 0 0  0.9499999999998684 0 0  1 0.04999999999989965 0  1 0.09999999999981467 0  1 0.1499999999997036 0  1 0.1999999999995579 0  1 0.2499999999994121 0  1 0.2999999999992664 0  1 0.3499999999991206 0  1 0.3999999999989749 0  1 0.4499999999988292 0  1 0.4999999999986943 0  1 0.5499999999988151 0  1 0.5999999999989468 0  1 0.6499999999990784 0  1 0.69999999999921 0  1 0.7499999999993417 0  1 0.7999999999994734 0  1 0.8499999999996051 0  1 0.8999999999997368 0  1 0.9499999999998684 0  0.9499999999997918 1 0  0.8999999999995836 1 0  0.8499999999996529 1 0  0.7999999999999998 1 0  0.7500000000003466 1 0  0.7000000000006934 1 0  0.6500000000010401 1 0  0.6000000000013869 1 0  0.5500000000017335 1 0  0.5000000000020587 1 0  0.4500000000018723 1 0  0.4000000000016644 1 0  0.3500000000014564 1 0  0.3000000000012483 1 0  0.2500000000010403 1 0  0.2000000000008322 1 0  0.1500000000006241 1 0  0.100000000000416 1 0  0.05000000000020799 1 0  -0.1 1.05000000000004 0  -0.1 1.000000000000079 0  -0.1 0.9500000000001624 0  -0.1 0.9000000000003032 0  -0.1 0.850000000000444 0  -0.1 0.8000000000005848 0  -0.1 0.7500000000007256 0  -0.1 0.7000000000008665 0  -0.1 0.6500000000010508 0  -0.1 0.6000000000012352 0  -0.1 0.5500000000014196 0  -0.1 0.500000000001539 0  -0.1 0.4500000000014195 0  -0.1 0.4000000000013 0  -0.1 0.3500000000011588 0  -0.1 0.3000000000010178 0  -0.1 0.2500000000008986 0  -0.1 0.2000000000007579 0  -0.1 0.1500000000006174 0  -0.1 0.1000000000005272 0  -0.1 0.05000000000040083 0  -0.1 2.671196597248127e-13 0  -0.1 -0.0499999999998666 0  -0.0500000000000906 -0.1 0  -1.730560139634463e-13 -0.1 0  0.04999999999975802 -0.1 0  0.09999999999961506 -0.1 0  0.1499999999994613 -0.1 0  0.199999999999302 -0.1 0  0.2499999999991446 -0.1 0  0.2999999999990088 -0.1 0  0.3499999999988296 -0.1 0  0.3999999999986936 -0.1 0  0.4499999999985143 -0.1 0  0.4999999999984002 -0.1 0  0.5499999999985247 -0.1 0  0.5999999999986493 -0.1 0  0.6499999999987955 -0.1 0  0.6999999999989417 -0.1 0  0.7499999999990659 -0.1 0  0.7999999999992116 -0.1 0  0.8499999999993573 -0.1 0  0.8999999999994526 -0.1 0  0.949999999999584 -0.1 0  0.9999999999997226 -0.1 0  1.049999999999861 -0.1 0  1.1 -0.0500000000000906 0  1.1 -1.730560139634463e-13 0  1.1 0.04999999999975802 0  1.1 0.09999999999961506 0  1.1 0.1499999999994613 0  1.1 0.199999999999302 0  1.1 0.2499999999991446 0  1.1 0.2999999999990088 0  1.1 0.3499999999988296 0  1.1 0.3999999999986936 0  1.1 0.4499999999985143 0  1.1 0.4999999999984002 0  1.1 0.5499999999985247 0  1.1 0.5999999999986493 0  1.1 0.6499999999987955 0  1.1 0.6999999999989417 0  1.1 0.7499999999990659 0  1.1 0.7999999999992116 0  1.1 0.8499999999993573 0  1.1 0.8999999999994526 0  1.1 0.949999999999584 0  1.1 0.9999999999997226 0  1.1 1.049999999999861 0  1.05000000000004 1.1 0  1.000000000000079 1.1 0  0.9500000000001624 1.1 0  0.9000000000003032 1.1 0  0.850000000000444 1.1 0  0.8000000000005848 1.1 0  0.7500000000007256 1.1 0  0.7000000000008665 1.1 0  0.6500000000010508 1.1 0  0.6000000000012352 1.1 0  0.5500000000014196 1.1 0  0.500000000001539 1.1 0  0.4500000000014195 1.1 0  0.4000000000013 1.1 0  0.3500000000011588 1.1 0  0.3000000000010178 1.1 0  0.2500000000008986 1.1 0  0.2000000000007579 1.1 0  0.1500000000006174 1.1 0  0.1000000000005272 1.1 0  0.05000000000040083 1.1 0  2.671196597248127e-13 1.1 0  -0.0499999999998666 1.1 0  0.5148110012061671 0.533954721033032 0  0.5421356549073565 0.5149245674195657 0  0.552072980982336 0.4831366138387913 0  0.5541526063456955 0.4512502294420032 0  0.5537771333591626 0.4196886845027701 0  0.5508530516300297 0.3883409763611657 0  0.5449588359100738 0.3572455024352416 0  0.5351076129549337 0.3268413721517223 0  0.5189383812899954 0.2986860421469726 0  0.4927795009755002 0.279147130080596 0  0.4611269313774949 0.2773994379654367 0  0.4310189316424737 0.2844453126520561 0  0.402539788049269 0.2946745220929854 0  0.3750554596470956 0.3068917254514219 0  0.3484496119265154 0.3205327139287319 0  0.3226617325291932 0.3353110343395407 0  0.2976021700400053 0.3510785798030105 0  0.2734304689523172 0.3678435002742869 0  0.2501921553485623 0.3856997053646977 0  0.2281268992837589 0.4048034128348607 0  0.2079828556938053 0.4256166351732544 0  0.1922130793990335 0.4495602972719103 0  0.197128563558241 0.475937749957987 0  0.2209765085901839 0.4925460516312463 0  0.2479205772958551 0.5041436716124451 0  0.2758817287931898 0.5133040721775944 0  0.3043983436010606 0.5207822902703352 0  0.3333176150961346 0.5269598682638548 0  0.3625768917176981 0.5319651396719002 0  0.3921811738279399 0.5358804301179284 0  0.4221007563004569 0.5387027288858209 0  0.4524035520971104 0.5401300959400752 0  0.5247229007581242 0.4064366987031567 0  0.3749288504422933 0.3410712197759529 0  0.4140486624042091 0.5067697852531682 0  0.3002147652017644 0.3838088375786131 0  0.3501272381971624 0.5010025761296881 0  0.4297641821480538 0.3185648254026849 0  0.4702656850265008 0.5101859135577974 0  0.2941028533879655 0.4888788239671963 0  0.5128539350222394 0.3475591853621163 0  0.2556792973689516 0.4188745227480476 0  0.5241447430016192 0.4671192911493456 0  0.4840335460730006 0.3040290774941621 0  0.2413044783789123 0.4708754352649077 0  0.2164418268749922 0.4584151920436967 0  0.5199630645496497 0.4990271345261784 0  0.4912452495704553 0.4837425246606926 0  0.4993198614850455 0.4492693416237041 0  0.4697803955775245 0.4607151787613323 0  0.4747234040575556 0.4291369994798823 0  0.4456217239795343 0.4397161436282226 0  0.4506907910735388 0.4071212499282873 0  0.4214500075251623 0.4178750584042872 0  0.4259288552022401 0.3851834182459893 0  0.3970437175224383 0.3956372718598863 0  0.392666670963089 0.4287024599202627 0  0.3685907800222317 0.4061487308967547 0  0.455310926474825 0.3747819008311989 0  0.3646527745304975 0.4390914334769876 0  0.3418769567770814 0.4169021543050818 0  0.3383716350874493 0.4484303688394486 0  0.3876366149480103 0.4620277343102432 0  0.3464042500628153 0.3846427106394162 0  0.3158191307514052 0.4274023628227214 0  0.4376212225959869 0.4751108944216565 0  0.4291654055183303 0.3526210187129026 0  0.4561454135752603 0.3423521209056381 0  0.4786816821348047 0.3983736427893968 0  0.4165074729155694 0.4509022967265753 0  0.4877531412518893 0.3673464465284678 0  0.4005427311263624 0.3631259382560021 0  0.3727684564946204 0.3737589170759129 0  0.3825528796088567 0.4980976837386867 0  0.3219067197573773 0.4957763456609151 0  0.4429728734236842 0.5095019533868206 0  0.2768168720706939 0.3999005428657922 0  0.2857566316152138 0.4325618595974124 0  0.4019968583628319 0.3294869194920785 0  0.3113949212176962 0.4617948825494385 0  0.2673190658927027 0.4818265141087911 0  0.2352390500275056 0.4380384514230276 0  0.3479542580204459 0.353248915743405 0  0.5209451685966371 0.3766522819051144 0  0.5263245027481366 0.436002486597553 0  0.3615453475334088 0.4704780071622781 0  0.2600660263039158 0.4507789625303554 0  0.5072709569811313 0.3230903798063499 0  0.3231617386980011 0.3672202853287896 0  0.4577869222060043 0.310899715801093 0  0.4091031650526913 0.4784155793876932 0  0.4847878667423275 0.3352519095781127 0  0.501418533251023 0.4196386291061424 0  0.2838198211353125 0.4631885012056318 0  0.3218034481846194 0.3973373834937262 0  0.4614832027642264 0.4867444200791179 0  0.4952413981156781 0.51366030327013 0  0.3367129280698095 0.4755206661535217 0  0.5027573698841036 0.3937023106626581 0  0.2978832615607118 0.4086898431105571 0  0.5558849654368822 0.33863281889072 0  0.5720126130344854 0.4368151293090253 0  0.3165447806467139 0.5415819457258522 0  0.4985436248071054 0.5541772588130736 0  0.9654034662780422 0.6889325075645779 0  0.633204392568661 0.9707877820459185 0  0.4050007801259976 0.5562029093427188 0  0.9752977341808475 0.5295319133128562 0  0.967844360450295 0.2708504002049421 0  0.2799124507097607 0.9623575580243217 0  0.3004931615148452 0.3260118037517996 0  0.3798806520653817 0.2825136093810343 0  0.4333789522963118 0.9688948978247095 0  0.231775030851718 0.5152634209995018 0  0.05102777980663469 0.7421315947261932 0  0.6948815117425391 0.03835946569841305 0  0.2270261949880076 0.3783737105824186 0  0.5642035912318386 0.5018369127065383 0  0.7882656709016975 0.9702918231990972 0  0.2258962145454449 0.03391189542652014 0  0.0423983387315844 0.2234274987734396 0  0.1875534918897118 0.4213340704272379 0  0.54429053052048 0.03901642955815197 0  0.3865187425865718 0.03342587852189646 0  0.8403577411279934 0.03981340106475966 0  0.1773368745048165 0.4655262624650564 0  0.4418325556281295 0.2652102253379817 0  0.04412382438537274 0.5861560677551327 0  0.9728952584298716 0.8368903786584383 0  0.03814491404538942 0.323699332802215 0  0.5563891840534214 0.5286194600146201 0  0.5790282178417556 0.5177974846447105 0  0
[...]
<PointData  Scalars="u"> 
<DataArray  type="Float64"  Name="u"  format="ascii">0.0000000000000000e+00  0.0000000000000000e+00  0.0000000000000000e+00  0.0000000000000000e+00  0.0000000000000000e+00  0.0000000000000000e+00  0.0000000000000000e+00  0.0000000000000000e+00  1.3077144059192569e-01  0.0000000000000000e+00  0.0000000000000000e+00  0.0000000000000000e+00  0.0000000000000000e+00  0.0000000000000000e+00  0.0000000000000000e+00  0.0000000000000000e+00  0.0000000000000000e+00  0.0000000000000000e+00  0.0000000000000000e+00  0.0000000000000000e+00  0.0000000000000000e+00  0.0000000000000000e+00  0.0000000000000000e+00  0.0000000000000000e+00  0.0000000000000000e+00  0.0000000000000000e+00  0.0000000000000000e+00  0.0000000000000000e+00  0.0000000000000000e+00  0.0000000000000000e+00  0.0000000000000000e+00  0.0000000000000000e+00  0.0000000000000000e+00  0.0000000000000000e+00  0.0000000000000000e+00  0.0000000000000000e+00  0.0000000000000000e+00  0.0000000000000000e+00  0.0000000000000000e+00  0.0000000000000000e+00  0.0000000000000000e+00  0.0000000000000000e+00  0.0000000000000000e+00  0.0000000000000000e+00  0.0000000000000000e+00  0.0000000000000000e+00  0.0000000000000000e+00  0.0000000000000000e+00  0.0000000000000000e+00  0.0000000000000000e+00  0.0000000000000000e+00  0.0000000000000000e+00  0.0000000000000000e+00  0.0000000000000000e+00  0.0000000000000000e+00  0.0000000000000000e+00  0.0000000000000000e+00  0.0000000000000000e+00  0.0000000000000000e+00  0.0000000000000000e+00  0.0000000000000000e+00  0.0000000000000000e+00  0.0000000000000000e+00  0.0000000000000000e+00  0.0000000000000000e+00  0.0000000000000000e+00  0.0000000000000000e+00  0.0000000000000000e+00  0.0000000000000000e+00  0.0000000000000000e+00  0.0000000000000000e+00  0.0000000000000000e+00  0.0000000000000000e+00  0.0000000000000000e+00  0.0000000000000000e+00  0.0000000000000000e+00  0.0000000000000000e+00  0.0000000000000000e+00  0.0000000000000000e+00  0.0000000000000000e+00  0.0000000000000000e+00  0.0000000000000000e+00  0.0000000000000000e+00  0.0000000000000000e+00  0.0000000000000000e+00  0.0000000000000000e+00  0.0000000000000000e+00  0.0000000000000000e+00  0.0000000000000000e+00  0.0000000000000000e+00  0.0000000000000000e+00  0.0000000000000000e+00  0.0000000000000000e+00  0.0000000000000000e+00  0.0000000000000000e+00  0.0000000000000000e+00  0.0000000000000000e+00  0.0000000000000000e+00  0.0000000000000000e+00  0.0000000000000000e+00  0.0000000000000000e+00  0.0000000000000000e+00  0.0000000000000000e+00  0.0000000000000000e+00  0.0000000000000000e+00  0.0000000000000000e+00  0.0000000000000000e+00  0.0000000000000000e+00  0.0000000000000000e+00  0.0000000000000000e+00  0.0000000000000000e+00  0.0000000000000000e+00  0.0000000000000000e+00  0.0000000000000000e+00  0.0000000000000000e+00  0.0000000000000000e+00  0.0000000000000000e+00  0.0000000000000000e+00  0.0000000000000000e+00  0.0000000000000000e+00  0.0000000000000000e+00  0.0000000000000000e+00  0.0000000000000000e+00  0.0000000000000000e+00  0.0000000000000000e+00  0.0000000000000000e+00  0.0000000000000000e+00  0.0000000000000000e+00  0.0000000000000000e+00  0.0000000000000000e+00  0.0000000000000000e+00  0.0000000000000000e+00  0.0000000000000000e+00  0.0000000000000000e+00  0.0000000000000000e+00  0.0000000000000000e+00  0.0000000000000000e+00  0.0000000000000000e+00  0.0000000000000000e+00  0.0000000000000000e+00  0.0000000000000000e+00  0.0000000000000000e+00  0.0000000000000000e+00  0.0000000000000000e+00  0.0000000000000000e+00  0.0000000000000000e+00  0.0000000000000000e+00  0.0000000000000000e+00  0.0000000000000000e+00  0.0000000000000000e+00  0.0000000000000000e+00  0.0000000000000000e+00  0.0000000000000000e+00  0.0000000000000000e+00  0.0000000000000000e+00  0.0000000000000000e+00  0.0000000000000000e+00  0.0000000000000000e+00  0.0000000000000000e+00  0.0000000000000000e+00  0.0000000000000000e+00  0.0000000000000000e+00  0.0000000000000000e+00  0.0000000000000000e+00  0.0000000000000000e+00  0.0000000000000000e+00  0.0000000000000000e+00  0.0000000000000000e+00  0.0000000000000000e+00  0.0000000000000000e+00  0.0000000000000000e+00  0.0000000000000000e+00  0.0000000000000000e+00  0.0000000000000000e+00  0.0000000000000000e+00  0.0000000000000000e+00  0.0000000000000000e+00  1.2620326449730004e-01  1.2276739065231224e-01  1.2779359759575279e-01  1.3074236600204175e-01  1.3216353682461579e-01  1.3236911592900730e-01  1.3140556317448129e-01  1.2928301723110935e-01  1.2651903183617610e-01  1.2423151022385719e-01  1.2883321536323711e-01  1.3188406264963298e-01  1.3372900498397591e-01  1.3513069615227419e-01  1.3575131772144680e-01  1.3568584397336889e-01  1.3494060427344656e-01  1.3331899305835093e-01  1.3083532021581601e-01  1.2730571958892248e-01  1.2257564134178281e-01  1.1411269810010735e-01  1.1402905134863818e-01  1.2268812952795805e-01  1.2763579128877001e-01  1.3106030774580851e-01  1.3344825765302934e-01  1.3482268371602704e-01  1.3557055298301726e-01  1.3567671012634516e-01  1.3497374614342744e-01  1.3343436183912216e-01  1.4115700191823882e-01  1.4341445454245014e-01  1.4317395579171557e-01  1.4162357780977095e-01  1.4247146569326752e-01  1.4173532787433493e-01  1.4103696228662838e-01  1.3950490700436283e-01  1.3975327134497062e-01  1.3724662265585763e-01  1.3978975700176727e-01  1.3859205856057483e-01  1.3455355512750725e-01  1.3128283420423040e-01  1.3829887897692600e-01  1.4094762683867365e-01  1.4177599615661590e-01  1.4299096866535757e-01  1.4353652301083536e-01  1.4471539010178083e-01  1.4469249037800924e-01  1.4549821530634546e-01  1.4487755459509224e-01  1.4526678334816692e-01  1.4547984313401355e-01  1.4492376388139491e-01  1.4371628011238544e-01  1.4472887629772618e-01  1.4391405400934601e-01  1.4347717914300617e-01  1.4472258301631202e-01  1.4374797766829009e-01  1.4238549509901732e-01  1.4380539331042877e-01  1.4346407135552716e-01  1.4205504441795444e-01  1.4326468737879031e-01  1.4505108615740375e-01  1.4195778992734509e-01  1.4428123055012124e-01  1.4433746571376704e-01  1.4396610654105793e-01  1.4146979517898131e-01  1.4222507593397138e-01  1.3969926272259964e-01  1.3988008434264501e-01  1.4293644594619176e-01  1.4149651652198911e-01  1.3721546144213642e-01  1.3459942958676890e-01  1.4317017039214533e-01  1.4068620527238054e-01  1.4064408546712437e-01  1.4389120115766046e-01  1.3674891514012844e-01  1.3813921492622472e-01  1.4253573573473929e-01  1.4036720200922922e-01  1.4422740364881126e-01  1.4024269234804232e-01  1.4206518965578452e-01  1.3885936600989143e-01  1.4260345932766741e-01  1.4222858655344517e-01  1.3860541541187707e-01  1.4265115651209828e-01  1.4181668644973883e-01  1.4094224870898028e-01  1.1807146525532461e-01  1.1801792510133909e-01  1.2232610821274349e-01  1.1523429228451174e-01  -8.2826097388223260e-03  -6.8240614440196632e-03  1.2252957026012284e-01  -5.6510628213698897e-03  -5.9079397025215375e-03  -6.0379658559278123e-03  1.2238109250995617e-01  1.2036847721620483e-01  -5.7438802656537480e-03  1.1313027901643620e-01  -3.3452860887047218e-03  -3.0111760040578222e-03  1.1449954723478756e-01  1.1158650381451431e-01  -7.4923036901326252e-03  8.0952057724322033e-04  2.8451699028038341e-03  1.0407612045494127e-01  2.4619652970372511e-03  4.0259924539193083e-03  -5.6847100522614772e-03  9.7539670097507233e-02  1.1852771118187815e-01  5.4798474468141980e-03  -6.6197062739022563e-03  7.1650531235369595e-03  1.0424881306280476e-01  9.1868239789436215e-02  8.2706422616584244e-02  7.0748813206527719e-02  6.1434268826483257e-02  5.0805160748832894e-02  4.2082818485183020e-02  3.3069405706731329e-02  2.5223292534621036e-02  3.2636955808443537e-02  3.9353057861898452e-02  1.7122394995328204e-02  2.2301093478064932e-02  1.6612373068484419e-02  9.2005422107763815e-03  1.2800772885190008e-02  1.8515373631640296e-03  -1.3593628487664892e-03  4.5870301734320254e-03  1.5436893326069947e-02  6.1331843764224530e-03  1.6592931070851913e-02  6.4392736689740208e-03  1.6155435815418968e-02  5.8778091568079541e-03  1.4621632218754272e-02  -6.8099283163372305e-03  -9.5939001871871345e-03  4.5599488710532177e-03  1.2034757498697634e-02  -1.8691851392164992e-03  -1.3385750457781355e-02  -1.5570642215870784e-02  2.5003346410569938e-03  8.5775944938156091e-03  -1.7965566938945732e-02  -1.9501721478596006e-02  -1.7324650254007635e-02  2.0141951446715090e-02  1.5148047406151693e-02  4.7472488709237254e-03  9.8193054307794507e-03  8.6473376420417663e-04  -2.0482657914109758e-02  -1.8503128970827228e-02  2.1608458568208595e-02  1.4844834545115721e-02  -1.6065759711878205e-02  2.7129621825471718e-02  2.7568909682031430e-02  1.9503619671264929e-02  -2.9227714353968546e-03  -2.1554328076616149e-02  -5.0037295906392859e-03  -2.1735045317370076e-02  -6.0067064441183607e-03  -4.8366787487224170e-03  -5.2369842158893195e-03  -5.4579940845041882e-03  3.5628971957709511e-02  9.4299802715215097e-02  7.8713991251404686e-02  7.3995760194882451e-02  5.9530941225707693e-02  6.1042338569530223e-02  5.4406458801431717e-02  7.3284802609231536e-02  -1.9150427414107489e-02  8.5456789997546204e-03  -4.2955613201808877e-03  -1.0842586182241707e-03  1.1947905667696599e-02  -1.7405330840475776e-02  3.2845329635107751e-02  6.6129380465946297e-02  4.6638926878522724e-02  -2.1813570790323977e-02  2.9404906190298960e-03  2.8181677429508448e-02  4.3720592913826135e-02  4.6552937242781180e-02  -1.3498146026482912e-02  -1.5814063042401318e-02  -1.8898224234944531e-02  -1.6814987246766298e-02  -1.3088433282099307e-02  -1.4627997304185075e-02  -1.0477787017642501e-02  -1.2584734613687556e-02  -8.2014848253314787e-03  -1.1055767797876355e-02  -6.7145576309583736e-03  -1.0052913138125686e-02  -6.1222446885729033e-03  -3.8408739227804259e-04  -3.8055007296748010e-04  -6.1012036170588957e-03  -1.1557446407013650e-03  6.9070669142962107e-03  5.2510300571418731e-03  -2.4974008940193740e-03  2.8855413915928425e-03  -4.1683230285593110e-03  -1.1238403784748966e-04  8.8122347802470878e-03  -6.0962356562568607e-03  4.4190289787905323e-03  1.0941380165271455e-01  1.4575683679305411e-02  2.1815354933437600e-02  9.0067091716894542e-03  2.0144874795160011e-02  1.2706405133666008e-02  2.4176707004657436e-02  9.4386294364410942e-04  -7.6911650189500427e-03  3.5402876190115319e-02  1.4963110402546120e-02  2.7781838395511616e-02  -7.7693642661932315e-03  -8.4600303950830794e-03  -1.6484546968039814e-02  -6.4058690855809657e-03  -2.1214132877656111e-02  -2.0454706112397299e-02  -3.9433223564716933e-03  1.0509712957405126e-01  9.1113342462576324e-02  8.5178986382481461e-02  9.2203468816458370e-02  -2.0549051348666456e-02  -1.8824380322817792e-02  5.8000717067846867e-02  4.0594599584256180e-02  5.1706260926577326e-02  7.6692531752625567e-02  -1.7034836430972911e-02  4.3776447416501467e-03  -1.5611227477374503e-02  2.9890330227794758e-02  -7.3637950070638558e-03  5.6637260205364215e-03  1.6179725290865355e-02  2.6252603997388820e-02  1.5618818510800936e-02  -1.0264275936820312e-02  -1.2146708850402456e-02  -1.1378551894502454e-02  -1.0604367135545478e-02  -1.3178568339871006e-03  7.0145558678351237e-03  3.6302751247666500e-02  3.4259297888989480e-02  4.7422990362921962e-02  5.5907097527858524e-02  7.4512965850325130e-02  -1.1559563894180754e-02  -1.3173829321456601e-03  -3.6777788330497152e-03  -1.5175168429154050e-02  -1.9127328907955873e-02  -1.9315465375169760e-02  -1.7802354525982261e-02  3.6561571795059047e-02  -5.9224608354918416e-03  -7.8530245410748083e-03  3.0170337823965741e-02  1.5617743913502987e-02  1.7654608282007087e-02  2.9017597282535210e-02  3.1169121382422747e-02  4.5197669006452022e-02  4.7047282855561680e-02  3.2086604100996154e-02  6.4083782578981396e-02  6.0288338397339318e-02  8.0520083196861020e-02  7.5262914526936897e-02  5.4843113291466010e-02  6.9508524904709240e-02  1.5466642574712012e-02  2.4371273222928522e-02  8.0815734084662728e-03  -4.3152702577550000e-03  -4.6818823859144116e-03  7.4281650229926013e-02  -4.5818258524579275e-03  3.7659668032291274e-02  3.3797003467207577e-02  2.1667405673589990e-02  2.8987240830377958e-02  4.3298590619008176e-02  3.6318438517435409e-02  5.4789222375005504e-02  4.3039557081322705e-02  6.0686190993148537e-02  4.7545582066320265e-02  3.2599877701097173e-02  3.5719657132445619e-02  5.1052282542893963e-02  3.7786416544412955e-02  5.2507913701288815e-02  3.8240731464705899e-02  5.1891340594872430e-02  3.6943211116969507e-02  2.5847668634800973e-02  4.9363525669972076e-02  3.3913518926733645e-02  2.2802910749612399e-02  4.4647564578062078e-02  2.9302408840786272e-02  2.1359429569016840e-02  7.0928889716772817e-02  6.7042278461102403e-02  2.2303622830756861e-02  9.2962657316481220e-02  2.4179177505980008e-02  -1.1389796149364377e-02  -1.2355823350490576e-02  -1.6740137615376509e-02  3.8487563596125318e-02  5.8292072816874277e-02  2.2157948938083285e-02  -2.8072933744440419e-03  -5.4124065125412809e-03  -1.0658998454605667e-02  5.0041984738336362e-02  7.4955925255504152e-02  8.0651823132495457e-02  9.4814353076760408e-02  6.4873866915697131e-02  -1.8527398534351404e-02  -1.4684385676263737e-02  7.0521223045234491e-02  -5.4412083909896004e-03  -7.7005947537060236e-03  -9.0683757019231134e-03  -9.8992495915091148e-03  -1.0174411404898262e-02  6.6859656097223372e-02  5.8410280204428011e-02  1.9899029699185437e-02  1.2765851451414168e-02  1.4673075874595952e-02  -8.3820365331122287e-03  -9.7209170490191177e-03  -9.1217184340693664e-03  -9.6279140702618584e-03  -1.6650207210039174e-02  -1.6282803302771154e-02  -1.6012455983123987e-02  -1.8636503601442901e-02  -1.0778095082822592e-02  -1.0976692822134135e-02  -1.0374197613015005e-02  -1.0898355947667287e-02  -1.0026554327252003e-02  -1.1018240286899093e-02  7.5683160665625013e-02  6.3700213829387564e-02  4.5248464429971949e-02  8.3069590280982430e-02  6.8198551992601525e-02  8.7829607537516424e-02  7.1674780559189272e-02  9.0779770502505353e-02  7.3995649814073861e-02  9.2602979059717164e-02  7.4453338909903855e-02  9.2931804803573742e-02  7.6005712431474581e-02  9.2070437018037285e-02  7.3148477792308972e-02  9.0499544753731009e-02  6.8829782601496844e-02  8.1999802340256556e-02  6.1016193123280965e-02  7.4556094649814747e-02  5.2878070323198897e-02  9.4238306328079127e-02  8.5815571936328855e-02  6.5027777515631990e-02  7.6426931335836737e-02  -1.3995699959014743e-02  -1.3189131023328918e-02  -1.2477988769410366e-02  1.9949085106533680e-02  1.0874022913364251e-01  9.6549781142646313e-02  2.2301780449794958e-02  1.7345049852105721e-02  -1.2533396150201211e-02  7.2751065604571202e-02  5.8655396287684528e-02  1.5882676813643221e-02  1.6694556792347676e-02  7.6190180237894020e-02  9.5297274610028015e-02  -2.8171365860487798e-03  -7.2482001733377198e-03  1.0614632552485435e-01  -1.1985935720570469e-02  2.6607350513549958e-02  -6.2028370203055863e-03  -1.2106342465129974e-02  1.0183483464215624e-01  -7.8121227350833877e-03  3.7036588677549949e-02  7.3546303633669598e-03  8.3165379034739195e-03  1.5706492403953821e-02  8.4737475559518629e-03  4.9998018368250293e-03  1.0043167863373992e-01  -9.1990988716642037e-03  8.9235718589410429e-02  5.8912419394411483e-02  1.0882473751858164e-01  5.6619874349723751e-02  -1.0002383864995090e-02  -7.9032423633201027e-03  1.1338579968604785e-01  -1.4575694521223549e-02  -1.7146764191315545e-02  -1.2856850971572841e-02  5.6462797109989186e-02  1.1357144828183979e-01  1.0054720277293415e-01  8.9809287012982381e-02  7.2970269040152580e-02  1.0241625641810251e-01  -9.4287464329075466e-03  -9.8656481561584623e-03  -8.6867266749750590e-03  -9.9887985641403717e-03  8.5910566931080581e-02  -9.7133643809067648e-03  -1.1221340183486068e-02  -9.4283552054457379e-03  -1.1282588481105646e-02  -1.1401495391091750e-02  -1.1657452668008836e-02  -1.0945864033320846e-02  -1.1120881125089660e-02  -1.0746492013988782e-02  -9.8351602219688573e-03  -1.0059346490814271e-02  -8.8771718555083999e-03  -8.0393829885107206e-03  -6.5482013367638876e-03  -8.3096521419720945e-03  8.5627712682225937e-02  1.0993649997784902e-01  9.6495572950093908e-02  1.0026531318455523e-01  8.9261831924399904e-02  6.6177243343791950e-02  7.1337232735870976e-02  8.8303394928422985e-02  8.7695860123454206e-02  8.3938630019238181e-02  1.0182555619612081e-01  1.0541432860223317e-01  1.1382639374847807e-01  7.6774906800697188e-03  2.9669246814977646e-03  2.1523518495314923e-03  7.3555769538612443e-03  -2.6658579918978695e-04  2.6790307228808239e-02  1.2066485963160069e-01  -7.1033708189332610e-03  -1.2269744735662533e-02  6.5699771654311276e-02  5.1877901167001160e-03  9.9709570625073352e-03  5.0327159900941951e-03  5.3759098255205372e-04  1.6298610163134647e-03  6.9195388690952327e-03  2.2324288670951568e-03  -6.6283395037493417e-04  -2.0462303975691877e-03  9.0556539981798811e-03  3.0049182971855951e-02  3.4472627333368693e-02  2.4162278841854571e-02  1.2725481516151200e-02  -5.6602718172566475e-03  1.1800782118179101e-01  2.3658997177181132e-02  5.6016800646582265e-02  1.1648897961170385e-01  7.8513335721395149e-03  8.5901805938336118e-03  -1.3576811950395810e-03  5.0824434464013107e-03  1.6659169047651518e-03  1.3033435665710368e-02  1.6208070722759798e-02  8.4630003236608083e-03  -2.2623286094818357e-03  4.1033695558914387e-03  2.7551998466763660e-02  -6.1224658366687426e-03  9.3399954587491091e-02  2.8671649089815152e-02  4.4102407076184000e-02  -5.5069988497014168e-03  -9.5593209483213395e-03  3.8217244763687423e-02  -1.4098539727055878e-02  -8.7528822593450854e-03  -7.6297382339747082e-03  -1.0364170726541047e-02  -6.0316795809097438e-03  -7.2120931033151309e-03  -5.5247825097666133e-03  -2.6937100373884940e-03  1.9451990049185227e-03  -6.7366896573983032e-04  -1.3438095558024963e-03  6.5583231395822728e-02  1.2209762537646791e-01  1.2232201524650740e-01  1.0719852229149643e-01  1.0584949325671077e-01  1.0850307488605689e-02  -3.0572929561259481e-04  6.2062894566649760e-04  -1.0131705430646478e-02  -1.1124255532988011e-02  4.0298482267865001e-03  1.1042553439115844e-02  8.7971497057323638e-03  -5.3063237462614979e-03  2.5351914204100535e-02  9.8224036509279630e-03  3.9197399577106926e-02  4.7059683650191385e-02  -6.4643687421083954e-03  -5.3715546585681416e-03  -5.2482488766639633e-03  -1.0596668117591595e-02  8.3982015044722580e-02  -5.1870126469785909e-03  8.6360378030024124e-02  -2.0873702175929987e-02  1.0661937225235641e-02  7.8774482131106965e-02  -4.6840688225302796e-03  4.3201812701806133e-02  -1.9944017073193973e-03  -5.5412568612257899e-03  -7.3322971325268582e-03  -1.3802465122588044e-02  -1.1681446385093030e-02  -9.2281900537767511e-03  7.1754317200609416e-02  8.0777828841416377e-02  -9.5947026434248864e-03  1.0868251360547257e-01  2.3488723136793656e-02  -6.1243012067401098e-03  -1.1834848582649705e-02  7.0814901378573420e-03  1.1873056801494319e-01  -9.5913395489291061e-03  1.8829425731381019e-02  -6.5724191975953614e-03  -9.2204145901374178e-03  -9.1173509892684534e-03  -1.0592425458725815e-02  -1.3633703581097828e-02  -1.8262277944915938e-02  -7.6794304475146340e-03  -1.2257941412406440e-02  -2.1412148851326626e-02  6.2889772806363972e-02  4.3049462694894923e-02  -6.9620675736579082e-03  -1.5938975737922523e-02  -1.1352623217017063e-02  -1.8311768579445796e-02  1.2312651600930366e-01  2.4989443123041383e-02  -2.0658785455963530e-02  2.2788140336801054e-02  -8.9289607534914755e-03  -1.4819275851907201e-02  -1.3268445735302951e-02  -1.0057317005282864e-02  -1.8345777391886855e-03  -2.5757497856412452e-03  2.4964345013722598e-02  -2.0597769819001084e-02  -1.7140821142111215e-03  1.4326311680834224e-02  1.7950313524210563e-02  4.7159115036954476e-02  9.1388112311145894e-02  -8.3623686784955182e-05  9.6980880737958006e-02  8.7057784796547910e-02  6.6687522863110998e-02  -8.4870098662528613e-03  -7.0444819591511222e-03  -8.8001368310651040e-03  4.9448130803798158e-03  -5.0570855569176927e-03  -4.4828949831864761e-03  2.9929458482333741e-03  -5.6996107305623727e-03  -4.7215307332080653e-