<?xml version="1.0"?>
<VTKFile type="UnstructuredGrid"  version="0.1"  >
<UnstructuredGrid>
<Piece  NumberOfPoints="1191" NumberOfCells="2284">
<Points>
<DataArray  type="Float64"  NumberOfComponents="3"  format="ascii">0 0 0  0 1 0  1 1 0  1 0 0  1.1 -0.1 0  -0.1 -0.1 0  1.1 1.1 0  -0.1 1.1 0  0.556602413008331 0.5530195156852347 0  0.5865983953787849 0.6917563359673391 0  0 0.9499999999997918 0  0 0.8999999999995836 0  0 0.8499999999996529 0  0 0.7999999999999998 0  0 0.7500000000003466 0  0 0.7000000000006934 0  0 0.6500000000010401 0  0 0.6000000000013869 0  0 0.5500000000017335 0  0 0.5000000000020587 0  0 0.4500000000018723 0  0 0.4000000000016644 0  0 0.3500000000014564 0  0 0.3000000000012483 0  0 0.2500000000010403 0  0 0.2000000000008322 0  0 0.1500000000006241 0  0 0.100000000000416 0  0 0.05000000000020799 0  0.04999999999989965 0 0  0.09999999999981467 0 0  0.1499999999997036 0 0  0.1999999999995579 0 0  0.2499999999994121 0 0  0.2999999999992664 0 0  0.3499999999991206 0 0  0.3999999999989749 0 0  0.4499999999988292 0 0  0.4999999999986943 0 0  0.5499999999988151 0 0  0.5999999999989468 0 0  0.6499999999990784 0 0  0.69999999999921 0 0  0.7499999999993417 0 0  0.7999999999994734 0 0  0.8499999999996051 0 0  0.8999999999997368 0 0  0.9499999999998684 0 0  1 0.04999999999989965 0  1 0.09999999999981467 0  1 0.1499999999997036 0  1 0.1999999999995579 0  1 0.2499999999994121 0  1 0.2999999999992664 0  1 0.3499999999991206 0  1 0.3999999999989749 0  1 0.4499999999988292 0  1 0.4999999999986943 0  1 0.5499999999988151 0  1 0.5999999999989468 0  1 0.6499999999990784 0  1 0.69999999999921 0  1 0.7499999999993417 0  1 0.7999999999994734 0  1 0.8499999999996051 0  1 0.8999999999997368 0  1 0.9499999999998684 0  0.9499999999997918 1 0  0.8999999999995836 1 0  0.8499999999996529 1 0  0.7999999999999998 1 0  0.7500000000003466 1 0  0.7000000000006934 1 0  0.6500000000010401 1 0  0.6000000000013869 1 0  0.5500000000017335 1 0  0.5000000000020587 1 0  0.4500000000018723 1 0  0.4000000000016644 1 0  0.3500000000014564 1 0  0.3000000000012483 1 0  0.2500000000010403 1 0  0.2000000000008322 1 0  0.1500000000006241 1 0  0.100000000000416 1 0  0.05000000000020799 1 0  -0.1 1.05000000000004 0  -0.1 1.000000000000079 0  -0.1 0.9500000000001624 0  -0.1 0.9000000000003032 0  -0.1 0.850000000000444 0  -0.1 0.8000000000005848 0  -0.1 0.7500000000007256 0  -0.1 0.7000000000008665 0  -0.1 0.6500000000010508 0  -0.1 0.6000000000012352 0  -0.1 0.5500000000014196 0  -0.1 0.500000000001539 0  -0.1 0.4500000000014195 0  -0.1 0.4000000000013 0  -0.1 0.3500000000011588 0  -0.1 0.3000000000010178 0  -0.1 0.2500000000008986 0  -0.1 0.2000000000007579 0  -0.1 0.1500000000006174 0  -0.1 0.1000000000005272 0  -0.1 0.05000000000040083 0  -0.1 2.671196597248127e-13 0  -0.1 -0.0499999999998666 0  -0.0500000000000906 -0.1 0  -1.730560139634463e-13 -0.1 0  0.04999999999975802 -0.1 0  0.09999999999961506 -0.1 0  0.1499999999994613 -0.1 0  0.199999999999302 -0.1 0  0.2499999999991446 -0.1 0  0.2999999999990088 -0.1 0  0.3499999999988296 -0.1 0  0.3999999999986936 -0.1 0  0.4499999999985143 -0.1 0  0.4999999999984002 -0.1 0  0.5499999999985247 -0.1 0  0.5999999999986493 -0.1 0  0.6499999999987955 -0.1 0  0.6999999999989417 -0.1 0  0.7499999999990659 -0.1 0  0.7999999999992116 -0.1 0  0.8499999999993573 -0.1 0  0.8999999999994526 -0.1 0  0.949999999999584 -0.1 0  0.9999999999997226 -0.1 0  1.049999999999861 -0.1 0  1.1 -0.0500000000000906 0  1.1 -1.730560139634463e-13 0  1.1 0.04999999999975802 0  1.1 0.09999999999961506 0  1.1 0.1499999999994613 0  1.1 0.199999999999302 0  1.1 0.2499999999991446 0  1.1 0.2999999999990088 0  1.1 0.3499999999988296 0  1.1 0.3999999999986936 0  1.1 0.4499999999985143 0  1.1 0.4999999999984002 0  1.1 0.5499999999985247 0  1.1 0.5999999999986493 0  1.1 0.6499999999987955 0  1.1 0.6999999999989417 0  1.1 0.7499999999990659 0  1.1 0.7999999999992116 0  1.1 0.8499999999993573 0  1.1 0.8999999999994526 0  1.1 0.949999999999584 0  1.1 0.9999999999997226 0  1.1 1.049999999999861 0  1.05000000000004 1.1 0  1.000000000000079 1.1 0  0.9500000000001624 1.1 0  0.9000000000003032 1.1 0  0.850000000000444 1.1 0  0.8000000000005848 1.1 0  0.7500000000007256 1.1 0  0.7000000000008665 1.1 0  0.6500000000010508 1.1 0  0.6000000000012352 1.1 0  0.5500000000014196 1.1 0  0.500000000001539 1.1 0  0.4500000000014195 1.1 0  0.4000000000013 1.1 0  0.3500000000011588 1.1 0  0.3000000000010178 1.1 0  0.2500000000008986 1.1 0  0.2000000000007579 1.1 0  0.1500000000006174 1.1 0  0.1000000000005272 1.1 0  0.05000000000040083 1.1 0  2.671196597248127e-13 1.1 0  -0.0499999999998666 1.1 0  0.6179743824282601 0.6845695782080615 0  0.6482254719045339 0.6718598791654862 0  0.6758800329705636 0.652906518403494 0  0.698197829184696 0.6276821638023475 0  0.7122516681162512 0.597401227414901 0  0.7209032683093142 0.5657746675360809 0  0.7251137993063261 0.5337487158819059 0  0.7261676733705436 0.5017731094787404 0  0.7245427787501504 0.4699992273985746 0  0.7202629585137847 0.4385688996527793 0  0.7133593246388161 0.4077185045915606 0  0.7038938368818204 0.3776259205959262 0  0.6918167219629545 0.3485365368020426 0  0.6770252934593518 0.3208910681471949 0  0.6588890199903541 0.2954017431058447 0  0.637691668202209 0.2729676337323925 0  0.6125549835376016 0.2550804135653689 0  0.5848959864196549 0.2427087549383269 0  0.5554585272016713 0.2369508582757154 0  0.5261597825396178 0.2363365660233914 0  0.4970906300335062 0.239753008804535 0  0.4686827284085051 0.2461612282403545 0  0.440973282634611 0.2551514041760116 0  0.4142101224554886 0.2663278750425783 0  0.3884658271601792 0.2790449810001828 0  0.3632588158410602 0.292969811324406 0  0.3389340082580398 0.3081632177135021 0  0.3155375854513388 0.3245358223608582 0  0.2930708192216318 0.3420196945467782 0  0.2717403546396565 0.3605587265905515 0  0.2520669832109481 0.3806886729087829 0  0.23377116966538 0.4018362854114579 0  0.2172941027250053 0.4242850920471917 0  0.2028162363330356 0.4475161877544205 0  0.1919446085735289 0.4721106490605338 0  0.1878804330387888 0.4978375518105973 0  0.1931523199222812 0.5239229448444215 0  0.2065802118231551 0.5479184290815277 0  0.2246290256961476 0.5699574125829067 0  0.245716325214808 0.5899780273286042 0  0.2686776979565144 0.6082357109083159 0  0.2932902736543552 0.6247448755195062 0  0.3192360156312076 0.639588772209005 0  0.3461349415595226 0.6528144405457015 0  0.3740555357526782 0.6642913327558244 0  0.4027804890275885 0.6741140597472882 0  0.4321971636721811 0.6823167674236065 0  0.4622117907031012 0.6887130337283359 0  0.4927826365581656 0.6931228372445908 0  0.5238024433238665 0.695364543491276 0  0.5551119469314719 0.6950973012549547 0  0.3443042346114042 0.6208909030428565 0  0.321173300921077 0.3557381168625922 0  0.646241145254562 0.323198107517115 0  0.3914262353397737 0.3048453399255157 0  0.4914991163005566 0.2680578849621381 0  0.2623157127015799 0.4100279101416352 0  0.6825634598389315 0.4040542829936525 0  0.2677057089987643 0.5761531415196148 0  0.5669120163757209 0.2646063757055734 0  0.4249126373199621 0.6500696209088793 0  0.2214795513743469 0.4719912252764246 0  0.4826056181553839 0.6640354802019731 0  0.697819735509799 0.4885005213766678 0  0.6981275174003126 0.5472192551016145 0  0.6677205950693919 0.6238208167067607 0  0.4377181966006843 0.2876908094355333 0  0.2363914576941328 0.53946998391571 0  0.5976340334844159 0.6564734052190205 0  0.5416622323123037 0.6667054131330096 0  0.6105824078619241 0.2849502664910846 0  0.2082423693106105 0.5082629893841041 0  0.3435786371667644 0.338574011918825 0  0.3491400683204064 0.3697015187704095 0  0.3268887505894638 0.386598773333367 0  0.3547588562119984 0.4006928204264981 0  0.3781219376483407 0.3828913513619688 0  0.3852705923994023 0.4182595074952814 0  0.4100138878180966 0.397440323558346 0  0.3543650902004374 0.436558291521966 0  0.3909673576089651 0.4563638723589435 0  0.3620568227262341 0.4781358890929577 0  0.3961561197471603 0.4966722806975222 0  0.4290827534344432 0.472879336899838 0  0.4346400030274321 0.5195401560745089 0  0.3655952731191311 0.5180098641905861 0  0.3343039102051027 0.5007485273699177 0  0.3375085137339522 0.5379523692844442 0  0.3084345952780192 0.5202510867731347 0  0.304431843469386 0.4848379223259696 0  0.3658491170157076 0.5550835207196616 0  0.2801322854733245 0.5031666217734302 0  0.2764314761242208 0.4704705148493922 0  0.2995668996478118 0.4508726450839839 0  0.4707399987017016 0.4901880348247786 0  0.3386611540153153 0.5714579550377948 0  0.4038277352831431 0.3642737214708562 0  0.4345226009436212 0.3763321715664553 0  0.4278878456669148 0.3438271692840382 0  0.4591500404870628 0.3534455267543875 0  0.4656953928885186 0.3920115977228055 0  0.4970776951417786 0.3604420262099297 0  0.5022359075936416 0.408289500782898 0  0.5363592754238741 0.3798428948510195 0  0.5308024649156913 0.339596447882975 0  0.5670030584777985 0.3537327669644939 0  0.577325775842899 0.3945539551499859 0  0.6048084322283678 0.3689519170764985 0  0.6207622327695465 0.4038898168286434 0  0.5922592183617391 0.4365416091945969 0  0.6310502396180666 0.4517171325731543 0  0.6365264689533443 0.3769311573073526 0  0.5571434006788751 0.3182034242305147 0  0.5238831432960013 0.3085999114554738 0  0.4787107723493013 0.326572866891342 0  0.2532927825572126 0.4875641352521684 0  0.2490346353646545 0.4576303925431507 0  0.2846278225788939 0.5338068978576982 0  0.6002311367277439 0.4896765800615775 0  0.6404531050909885 0.4986363430603559 0  0.6628385151885295 0.4687188018132437 0  0.5951840122081306 0.3302392712635784 0  0.6506384811268713 0.421075933278683 0  0.3124048293757505 0.557808566319634 0  0.5504323064745011 0.4754065923568747 0  0.31291315107739 0.5896664512266594 0  0.4704959658864525 0.5520002823044881 0  0.4329290431642509 0.5722100031778217 0  0.4766833026370786 0.5960083869553349 0  0.4434574927510819 0.6118249308883891 0  0.3628157972435382 0.593260593338546 0  0.385527303622972 0.5
[...]
<PointData  Scalars="u"> 
<DataArray  type="Float64"  Name="u"  format="ascii">0.0000000000000000e+00  0.0000000000000000e+00  0.0000000000000000e+00  0.0000000000000000e+00  0.0000000000000000e+00  0.0000000000000000e+00  0.0000000000000000e+00  0.0000000000000000e+00  3.4428258100236153e-01  3.1603614421904774e-01  0.0000000000000000e+00  0.0000000000000000e+00  0.0000000000000000e+00  0.0000000000000000e+00  0.0000000000000000e+00  0.0000000000000000e+00  0.0000000000000000e+00  0.0000000000000000e+00  0.0000000000000000e+00  0.0000000000000000e+00  0.0000000000000000e+00  0.0000000000000000e+00  0.0000000000000000e+00  0.0000000000000000e+00  0.0000000000000000e+00  0.0000000000000000e+00  0.0000000000000000e+00  0.0000000000000000e+00  0.0000000000000000e+00  0.0000000000000000e+00  0.0000000000000000e+00  0.0000000000000000e+00  0.0000000000000000e+00  0.0000000000000000e+00  0.0000000000000000e+00  0.0000000000000000e+00  0.0000000000000000e+00  0.0000000000000000e+00  0.0000000000000000e+00  0.0000000000000000e+00  0.0000000000000000e+00  0.0000000000000000e+00  0.0000000000000000e+00  0.0000000000000000e+00  0.0000000000000000e+00  0.0000000000000000e+00  0.0000000000000000e+00  0.0000000000000000e+00  0.0000000000000000e+00  0.0000000000000000e+00  0.0000000000000000e+00  0.0000000000000000e+00  0.0000000000000000e+00  0.0000000000000000e+00  0.0000000000000000e+00  0.0000000000000000e+00  0.0000000000000000e+00  0.0000000000000000e+00  0.0000000000000000e+00  0.0000000000000000e+00  0.0000000000000000e+00  0.0000000000000000e+00  0.0000000000000000e+00  0.0000000000000000e+00  0.0000000000000000e+00  0.0000000000000000e+00  0.0000000000000000e+00  0.0000000000000000e+00  0.0000000000000000e+00  0.0000000000000000e+00  0.0000000000000000e+00  0.0000000000000000e+00  0.0000000000000000e+00  0.0000000000000000e+00  0.0000000000000000e+00  0.0000000000000000e+00  0.0000000000000000e+00  0.0000000000000000e+00  0.0000000000000000e+00  0.0000000000000000e+00  0.0000000000000000e+00  0.0000000000000000e+00  0.0000000000000000e+00  0.0000000000000000e+00  0.0000000000000000e+00  0.0000000000000000e+00  0.0000000000000000e+00  0.0000000000000000e+00  0.0000000000000000e+00  0.0000000000000000e+00  0.0000000000000000e+00  0.0000000000000000e+00  0.0000000000000000e+00  0.0000000000000000e+00  0.0000000000000000e+00  0.0000000000000000e+00  0.0000000000000000e+00  0.0000000000000000e+00  0.0000000000000000e+00  0.0000000000000000e+00  0.0000000000000000e+00  0.0000000000000000e+00  0.0000000000000000e+00  0.0000000000000000e+00  0.0000000000000000e+00  0.0000000000000000e+00  0.0000000000000000e+00  0.0000000000000000e+00  0.0000000000000000e+00  0.0000000000000000e+00  0.0000000000000000e+00  0.0000000000000000e+00  0.0000000000000000e+00  0.0000000000000000e+00  0.0000000000000000e+00  0.0000000000000000e+00  0.0000000000000000e+00  0.0000000000000000e+00  0.0000000000000000e+00  0.0000000000000000e+00  0.0000000000000000e+00  0.0000000000000000e+00  0.0000000000000000e+00  0.0000000000000000e+00  0.0000000000000000e+00  0.0000000000000000e+00  0.0000000000000000e+00  0.0000000000000000e+00  0.0000000000000000e+00  0.0000000000000000e+00  0.0000000000000000e+00  0.0000000000000000e+00  0.0000000000000000e+00  0.0000000000000000e+00  0.0000000000000000e+00  0.0000000000000000e+00  0.0000000000000000e+00  0.0000000000000000e+00  0.0000000000000000e+00  0.0000000000000000e+00  0.0000000000000000e+00  0.0000000000000000e+00  0.0000000000000000e+00  0.0000000000000000e+00  0.0000000000000000e+00  0.0000000000000000e+00  0.0000000000000000e+00  0.0000000000000000e+00  0.0000000000000000e+00  0.0000000000000000e+00  0.0000000000000000e+00  0.0000000000000000e+00  0.0000000000000000e+00  0.0000000000000000e+00  0.0000000000000000e+00  0.0000000000000000e+00  0.0000000000000000e+00  0.0000000000000000e+00  0.0000000000000000e+00  0.0000000000000000e+00  0.0000000000000000e+00  0.0000000000000000e+00  0.0000000000000000e+00  0.0000000000000000e+00  0.0000000000000000e+00  0.0000000000000000e+00  0.0000000000000000e+00  0.0000000000000000e+00  0.0000000000000000e+00  0.0000000000000000e+00  0.0000000000000000e+00  0.0000000000000000e+00  0.0000000000000000e+00  0.0000000000000000e+00  0.0000000000000000e+00  0.0000000000000000e+00  0.0000000000000000e+00  0.0000000000000000e+00  3.1290539050376798e-01  3.1091548262260521e-01  3.0977211028413176e-01  3.0931956932831789e-01  3.1154943773185945e-01  3.1401269479612559e-01  3.1565658385741791e-01  3.1613264494867566e-01  3.1655027660289381e-01  3.1697177807027560e-01  3.1631296928678704e-01  3.1540556541296499e-01  3.1316641485373886e-01  3.1105166654044553e-01  3.0906595430075323e-01  3.0735320773116859e-01  3.0634792545926010e-01  3.0554833411546489e-01  3.0664595214553009e-01  3.0827884385576898e-01  3.1038996665985735e-01  3.1204981446084318e-01  3.1393595512594374e-01  3.1582379385954412e-01  3.1690696639205412e-01  3.1710740841728924e-01  3.1641767929442477e-01  3.1535189707988376e-01  3.1370859870370083e-01  3.1124329156658936e-01  3.0914776876359623e-01  3.0602927757236648e-01  3.0245609707865134e-01  2.9723983170408064e-01  2.9176537749237230e-01  2.9006223049151414e-01  2.9283505397741078e-01  2.9693411053749613e-01  3.0220311580741122e-01  3.0668478884568090e-01  3.1042849655027660e-01  3.1446675594739421e-01  3.1636165924524234e-01  3.1795995120409531e-01  3.1975868721147238e-01  3.2096231481230469e-01  3.2147468142376973e-01  3.2118737532857849e-01  3.2036843513446678e-01  3.1908688258137541e-01  3.1779352645812359e-01  3.3085207441841241e-01  3.2901707425751686e-01  3.2666337403721063e-01  3.3008867839606981e-01  3.2751297851340228e-01  3.2298826175306355e-01  3.3073708226303333e-01  3.2248736318385962e-01  3.2363715546492333e-01  3.3483845722476857e-01  3.1480063127729302e-01  3.3443231547123947e-01  3.3107601111203566e-01  3.2935125585515401e-01  3.2726911384737828e-01  3.3036537639621860e-01  3.1802009783888235e-01  3.3131837614495846e-01  3.3248792473750172e-01  3.2481661402647083e-01  3.1054200533135556e-01  3.3001855231990646e-01  3.3282058623899852e-01  3.3130937223623047e-01  3.3515187770865301e-01  3.3656746501863238e-01  3.3987397669709446e-01  3.4063459317068578e-01  3.3707649825398400e-01  3.4207887183142688e-01  3.3908369554931461e-01  3.4281126153434355e-01  3.4563815008820087e-01  3.4578414474832786e-01  3.3888631554882764e-01  3.3516725529804642e-01  3.3454756991754248e-01  3.3063732370965726e-01  3.3057319213825387e-01  3.3732839986632862e-01  3.2610161014908845e-01  3.2574652216452565e-01  3.2963106187921892e-01  3.4847221069506223e-01  3.3301883912240637e-01  3.3721538384286676e-01  3.4027263908750294e-01  3.3645040799042980e-01  3.3853928299123465e-01  3.4300571729736928e-01  3.3965020717730271e-01  3.4511009258420022e-01  3.4131813774852149e-01  3.3612933768545322e-01  3.3652368918446401e-01  3.4038919347035601e-01  3.3525978317674671e-01  3.3677254548673574e-01  3.4186378188674421e-01  3.3828860105601866e-01  3.3322260800724490e-01  3.3244885283407327e-01  3.3235167936101639e-01  3.3517439081596645e-01  3.2167785901983792e-01  3.2043270174743033e-01  3.2624056929055562e-01  3.4271621362298638e-01  3.3745370012789816e-01  3.3566359914522625e-01  3.3097171205266801e-01  3.3511373341401646e-01  3.2992523195674162e-01  3.4813461747889890e-01  3.2919061723300402e-01  3.4515084220454867e-01  3.4171052563602211e-01  3.4116350608865614e-01  3.3854628117233398e-01  3.3454137041819543e-01  3.3803262204604795e-01  3.3648913013523785e-01  3.3430657533498653e-01  3.2801583554243807e-01  3.2210084719802329e-01  3.2811074845595545e-01  3.3439904120266184e-01  3.3206471637720342e-01  3.2741198330930954e-01  3.3384194890523389e-01  3.3238333996013070e-01  3.4634811845949831e-01  3.4110581555018804e-01  3.2723885452514412e-01  3.3082775072754583e-01  3.2985094903478362e-01  3.3303224779895879e-01  3.3501817930206856e-01  3.2452525344249467e-01  3.3461382243665283e-01  3.3736390208578654e-01  3.3914389792976668e-01  3.4376707226692116e-01  3.3985476471643622e-01  3.3776095116952176e-01  3.3975603361416917e-01  3.3452172717827611e-01  3.3656940236802574e-01  3.3484088628959591e-01  3.3155872937144337e-01  3.3268943227192543e-01  3.3062384001230583e-01  3.3697451025811603e-01  3.3349899608373390e-01  3.3404085541055301e-01  3.2527943618110550e-01  3.3102427769478487e-01  3.3280224419298765e-01  3.3221949385865063e-01  3.3190316776823559e-01  3.3019654166306711e-01  3.3416145732518110e-01  3.3089244898362480e-01  3.2573903679143196e-01  3.1931809505417547e-01  3.1847615160638476e-01  3.3756302046680198e-01  3.2858475726215863e-01  3.4523285263591963e-01  3.1501003210104778e-01  3.2721547014977875e-01  3.2885743213857965e-01  3.2495256634871128e-01  3.2312705900223332e-01  3.4873887516445640e-01  3.4830368594963473e-01  3.2788525261012480e-01  3.3365303926459144e-01  3.4358076873385485e-01  3.1513223002525004e-01  3.2582322282714210e-01  3.2954992002808237e-01  3.3632025781071567e-01  3.2929413430313853e-01  3.2410351755784772e-01  3.2138305312921028e-01  3.2804129571683582e-01  3.3253604743904464e-01  3.3718236856822192e-01  3.2589882032351858e-01  3.3308524146085067e-01  3.3509171596788723e-01  3.2734828330559979e-01  3.3901996096746295e-01  3.4172330279278113e-01  3.3487972647008357e-01  3.2832509481693095e-01  3.3949170468843004e-01  3.4327927050203999e-01  3.3215891154575922e-01  3.3336142382789868e-01  3.3135033922426133e-01  3.1145653722205296e-01  3.3837017014988124e-01  3.3418476109233064e-01  3.2892524126423989e-01  3.3640731454917006e-01  3.2814950718340979e-01  3.3582213664737470e-01  3.3764456487793409e-01  3.2198902023312920e-01  3.2963463294942752e-01  3.2728070826320671e-01  3.0895694050849204e-01  2.8456779495185430e-01  2.9382888769119447e-01  2.9844664226505774e-01  2.9412773382337876e-01  2.8473004097658167e-01  2.8524132603018532e-01  2.9448521530981669e-01  2.7780214851356982e-01  2.9246217781457656e-01  2.8986684990927319e-01  2.9111460570598585e-01  6.3182119122773515e-03  4.8315273323765668e-03  8.9688675990550089e-03  7.3502960881870784e-03  2.9287946833182033e-01  1.3167431063230726e-02  2.7544012601207618e-01  1.0069309525006799e-02  2.6394925460118202e-01  9.3631681392559729e-03  1.1785164765490188e-02  2.7965421721337275e-01  2.2850464315509748e-02  2.8767967329811844e-01  1.9167386093247158e-02  1.9178536432144479e-02  2.7787790860812922e-01  2.1608953927934962e-02  2.8029474541294142e-01  2.7013089794583905e-01  2.9511071484093410e-01  3.1242427686507153e-02  3.1194368440873730e-02  3.6094213650600615e-02  2.5352069354101042e-01  3.8698888926651985e-02  8.9887166099259352e-03  8.1433584376447172e-03  3.3190940812089557e-02  9.9231224677393901e-03  3.0315730898442879e-03  1.0846871889659267e-02  2.8530591753014572e-03  1.1854223067413570e-02  4.1676045775017524e-02  4.0036800366120258e-03  3.1845960557595433e-03  4.2848687261029562e-02  8.5789036256636707e-03  2.3973987751216236e-01  2.0553095013345107e-01  2.1460176044699752e-01  1.8965614072568504e-01  1.5532093462903937e-01  1.6542276394460907e-04  1.3828444205014415e-01  1.6794942910486971e-01  1.0253174317545043e-01  2.8249617642817859e-01  2.5446274050985274e-01  2.4829488473451247e-01  2.1948555844368295e-01  2.0854883850054651e-01  1.8254147076587271e-01  1.8862544427660730e-01  1.7358101572219992e-01  1.5560063241510808e-01  1.5781338592422270e-01  1.2817796042014329e-01  1.2875574286417082e-01  1.0269864826110199e-01  1.0134218039954110e-01  1.6022883994567744e-01  1.2552558491069216e-01  1.4935424411528053e-01  1.1755722348765399e-01  1.4094077326138832e-01  7.9308673988836800e-02  7.7537383103942148e-02  1.0804324321216696e-01  1.2887321751378353e-01  9.6474609325617106e-02  1.1476072300492052e-01  9.6099088095491433e-02  1.9414003444684541e-01  1.5939770827264824e-01  1.8372451207519602e-01  1.4292419471595930e-01  1.5762716829054710e-01  1.2403068126116533e-01  1.3467799550822168e-01  1.0454150805451121e-01  9.4887777460086545e-02  1.1212843276766540e-01  7.8237272001286717e-02  6.9901844643156644e-02  1.4272056463130850e-01  1.1749503884758673e-01  1.4679502489841065e-01  1.2073623903946205e-01  1.4884909458096474e-01  1.2128827944000395e-01  1.4798641750800451e-01  1.1978539945514736e-01  1.4560990925317599e-01  1.1691968485432583e-01  1.4147667942582418e-01  1.1186498719131818e-01  1.3373775509794728e-01  1.0459171278000343e-01  1.2502704688079758e-01  9.5221515815576668e-02  1.1182953286368570e-01  8.3621397798627997e-02  9.7173045769029284e-02  7.0057914874912031e-02  1.2819743639431794e-01  1.1022828624145303e-01  9.3559138496256675e-02  9.4795359343714539e-02  7.0457676155750201e-02  1.4402490870080298e-01  1.2234197914755418e-01  9.0384303795511420e-02  1.6352657102392204e-01  9.0533294900244185e-02  1.4906403427702433e-01  1.3236630072556096e-01  1.0011213078001466e-01  1.1468422987189338e-01  8.4023555307545766e-02  9.5887297019725967e-02  1.2774112594576525e-01  1.0580214533859705e-01  1.3805439260047339e-01  1.1321322042255832e-01  8.4511454983444534e-02  8.9079243131939559e-02  1.1743162683277643e-01  6.4732984845985858e-02  8.9949329627258282e-02  1.1660262018925840e-01  6.7764390244079459e-02  5.6099917787709987e-02  4.9168775745066659e-02  1.2851367159763794e-01  6.0401358213399689e-02  4.1317791412489591e-02  1.6373403975357037e-01  9.8247375510620003e-02  5.8929256038222542e-02  5.6842491888981446e-02  1.3208433512062051e-01  1.6824938937551692e-01  1.9263166843973853e-01  1.7570275864329080e-01  8.6424855648309373e-02  1.1107683958807194e-01  6.4514741372419179e-02  5.8515186210701529e-02  1.4585361825223223e-01  1.3763197750162917e-01  1.0069993200668710e-01  1.2316403249699966e-01  2.5756052708053884e-01  6.1882276901459796e-02  4.2188100321820417e-02  7.8277925018627736e-02  1.8699715491979446e-01  6.7590731723593186e-02  1.0359097165546548e-01  1.3885469286535959e-01  1.8298411053137148e-01  2.0365064462551521e-01  4.1315190755542998e-02  3.9461838382411643e-02  6.9525016657827565e-02  8.3767371004106653e-02  1.0366868572570101e-01  1.4679750537421773e-01  1.2499114356956413e-01  1.8025577700437337e-01  1.7077571837329039e-01  7.3991798171792619e-02  1.6299993217109590e-01  1.7410230496111048e-01  1.7322156256665128e-01  2.0706881651054224e-01  4.5767689397530904e-02  3.2201202471096445e-02  2.5977675633300456e-02  1.0637845593541007e-01  1.4933595736055799e-01  1.0510323883036908e-01  2.0114651218188273e-01  2.1289092365491452e-01  1.8234051874807700e-01  1.7856804877458296e-01  7.4619833770845204e-02  1.8206096040138472e-01  2.2232437992938911e-01  2.6688838248304671e-02  2.5168959228668176e-02  5.9633607826120406e-02  4.2560340037135214e-02  5.6375159617801658e-02  4.3410062857062871e-02  1.6946710501178813e-01  1.4569285619411645e-01  9.9959756568584968e-02  1.1215375114947571e-01  1.5806844927594882e-01  1.2297986349306035e-01  1.6710647843246140e-01  1.3162221097418680e-01  1.7339309517498702e-01  1.3630074008135079e-01  1.8146752028092450e-01  1.4016511139230695e-01  1.7628792046929811e-01  1.3875827423349507e-01  1.6922405342581012e-01  1.3165461223707117e-01  1.6551000509399358e-01  1.2357480146404298e-01  1.4994549250707595e-01  1.1234356034292829e-01  1.3541671365556626e-01  9.8722723617045163e-02  1.1738277556256381e-01  1.0413917112460558e-01  7.9779242451984367e-02  1.5822875181798007e-01  1.3554331454256990e-01  6.7400240037403233e-02  9.6491465646634661e-02  1.1138992626558275e-01  1.5719281057190027e-01  1.8390552400363963e-01  1.2392985465398072e-01  5.2453662932464978e-02  1.6487665113173569e-01  1.2839206569963071e-01  6.0966413865637323e-02  9.7857068243064185e-02  4.1872428326862290e-02  9.2659962350763792e-02  1.9346915168484996e-01  2.8589334369816952e-02  5.9683578338070822e-02  4.3975959526628049e-02  5.2873373278915455e-02  4.8940499158058023e-02  4.6018708337452426e-02  6.3744659119147118e-02  4.6544167801058044e-02  4.1875792748473972e-02  2.2179787807420998e-01  6.8406342167859166e-02  5.0161052057339096e-02  2.8894074755708186e-02  2.3301388529008257e-03  1.5216894913988603e-03  1.1611361993634584e-01  3.8480195966797082e-02  3.0366766356487246e-02  1.7078774075141637e-02  2.2701770099071911e-01  5.1779216665785818e-02  6.0875246278147499e-02  2.7554945284139345e-02  2.4420183774299478e-01  2.5989029343933333e-02  3.6452086978671250e-02  4.2472797513931557e-02  7.7432818989037505e-02  2.4100567240096071e-01  2.3148101818327799e-01  2.5069145522775216e-01  4.3036475788549321e-02  3.8323594249765267e-02  2.7679061022077839e-01  1.5648894743221998e-02  1.4312633201586563e-02  1.7736464847056682e-01  1.3214334166653993e-01  1.1915848202924455e-01  2.0958437748786929e-01  1.8425337740382100e-01  2.2631614013938020e-01  2.1149380325208605e-01  2.2439550591555107e-01  2.2669550367007598e-02  1.1979809370884388e-02  2.6094809784612411e-01  2.4145216580249967e-01  8.8650026133381396e-02  1.8971310763763294e-02  1.4465190973725471e-02  2.4555398684097890e-01  2.7932595705494691e-02  1.8273919352778712e-02  2.1442477521426542e-01  2.8502861184569506e-01  2.5596260209766869e-01  2.5387665449342212e-01  6.0096946795132862e-03  5.2867595103823660e-03  6.6003616097165638e-02  4.7512383503045631e-02  1.4354327453672847e-01  1.8677287501692641e-01  2.8978153923274508e-02  2.5010847271838194e-02  3.5633840545566259e-02  2.0209153769035763e-02  2.8125242055279730e-02  1.2519251153851853e-02  1.4338848421004332e-02  2.1187914632885105e-01  2.1480591863852944e-01  2.7898466151820167e-01  2.4538247413657638e-01  9.4007929863628201e-02  2.7585797997102229e-01  5.6167200194620105e-02  4.6369711896000754e-02  2.3894528408516186e-03  2.8080319656195651e-01  2.7352628144603319e-01  2.4327650037563747e-01  2.2845703882839885e-01  2.0390972668735066e-01  2.4204444474755765e-01  7.1099102971404607e-02  2.6480521038414478e-01  2.4072509712719642e-01  2.4659494536097221e-01  7.0007940797647147e-02  1.5190423339319154e-02  2.5606586362319134e-01  2.0988616183547609e-01  2.0384921088446922e-01  1.8791342435756034e-01  4.4462611926215971e-02  3.4868114649630820e-02  4.7770243902022134e-02  2.2032133935257348e-01  2.9263831086817533e-02  2.1631205164015333e-02  8.2599972817118030e-03  2.2203770873664938e-01  2.0949867711211481e-01  2.4434930314549416e-01  2.3442474447853578e-01  2.6986372023710398e-01  1.8386576902138069e-01  2.0265429131103674e-01  2.2882369313048884e-01  2.4697281425123288e-01  2.2705786996007893e-01  2.7065749708081882e-01  1.9152096104043034e-01  2.8157061332170363e-01  2.4432885995915368e-01  2.6757886299416439e-01  2.3708390128284892e-01  8.7350150480740643e-03  1.6429389972853320e-01  2.5465106856167485e-01  2.8110583820611551e-01  2.9253821628522486e-01  1.6935428587467119e-01  2.9601598923079919e-01  2.6914745240867044e-01  2.6897450575468584e-01  2.3956912208599060e-01  2.3731526205179104e-01  2.3819528735873616e-01  2.1251768103208399e-01  2.6643690052335006e-01  2.3407886037332415e-01  2.6050877777323733e-01  2.2375234869973626e-01  2.5115831134179095e-01  2.1936738548278195e-01  2.4634407653605125e-01  2.7661456294487918e-01  2.0140103806763340e-01  2.3781300258413029e-02  2.2900912136589965e-01  1.5336555469530161e-01  2.7160177756449952e-02  2.9002572017574280e-01  2.5209533744037647e-02  2.1303613623434603e-01  2.5106242948799701e-01  2.0376679209564835e-01  2.3843281169976030e-01  2.4065799752077241e-01  3.0654645363608152e-02  2.3003317157341562e-02  7.6440739179043753e-03  9.8667963532064109e-03  2.9524554981207818e-01  2.7716494969995886e-01  3.2576257850564914e-02  1.2854196529738338e-02  2.1510337727438897e-01  5.8718016446022508e-02  2.9430999993138651e-01  1.8016027407234109e-01  1.8039441786201099e-01  3.1278435717442633e-02  1.6222311937567509e-02  1.7908743195286039e-01  8.3763429974858163e-03  1.6493581269420657e-01  2.9627251307187985e-01  1.4494829799087941e-01  1.6048789383394094e-01  1.6706613015436750e-01  2.0011956487659782e-01  1.0688275320187377e-02  2.8647214475816807e-02  2.8848223910064860e-02  4