<?xml version="1.0"?>
<VTKFile type="UnstructuredGrid"  version="0.1"  >
<UnstructuredGrid>
<Piece  NumberOfPoints="1256" NumberOfCells="2414">
<Points>
<DataArray  type="Float64"  NumberOfComponents="3"  format="ascii">0 0 0  0 1 0  1 1 0  1 0 0  1.1 -0.1 0  -0.1 -0.1 0  1.1 1.1 0  -0.1 1.1 0  0.5064621910745203 0.5192356800127159 0  0.5996894029728643 0.7292675211054858 0  0 0.9499999999997918 0  0 0.8999999999995836 0  0 0.8499999999996529 0  0 0.7999999999999998 0  0 0.7500000000003466 0  0 0.7000000000006934 0  0 0.6500000000010401 0  0 0.6000000000013869 0  0 0.5500000000017335 0  0 0.5000000000020587 0  0 0.4500000000018723 0  0 0.4000000000016644 0  0 0.3500000000014564 0  0 0.3000000000012483 0  0 0.2500000000010403 0  0 0.2000000000008322 0  0 0.1500000000006241 0  0 0.100000000000416 0  0 0.05000000000020799 0  0.04999999999989965 0 0  0.09999999999981467 0 0  0.1499999999997036 0 0  0.1999999999995579 0 0  0.2499999999994121 0 0  0.2999999999992664 0 0  0.3499999999991206 0 0  0.3999999999989749 0 0  0.4499999999988292 0 0  0.4999999999986943 0 0  0.5499999999988151 0 0  0.5999999999989468 0 0  0.6499999999990784 0 0  0.69999999999921 0 0  0.7499999999993417 0 0  0.7999999999994734 0 0  0.8499999999996051 0 0  0.8999999999997368 0 0  0.9499999999998684 0 0  1 0.04999999999989965 0  1 0.09999999999981467 0  1 0.1499999999997036 0  1 0.1999999999995579 0  1 0.2499999999994121 0  1 0.2999999999992664 0  1 0.3499999999991206 0  1 0.3999999999989749 0  1 0.4499999999988292 0  1 0.4999999999986943 0  1 0.5499999999988151 0  1 0.5999999999989468 0  1 0.6499999999990784 0  1 0.69999999999921 0  1 0.7499999999993417 0  1 0.7999999999994734 0  1 0.8499999999996051 0  1 0.8999999999997368 0  1 0.9499999999998684 0  0.9499999999997918 1 0  0.8999999999995836 1 0  0.8499999999996529 1 0  0.7999999999999998 1 0  0.7500000000003466 1 0  0.7000000000006934 1 0  0.6500000000010401 1 0  0.6000000000013869 1 0  0.5500000000017335 1 0  0.5000000000020587 1 0  0.4500000000018723 1 0  0.4000000000016644 1 0  0.3500000000014564 1 0  0.3000000000012483 1 0  0.2500000000010403 1 0  0.2000000000008322 1 0  0.1500000000006241 1 0  0.100000000000416 1 0  0.05000000000020799 1 0  -0.1 1.05000000000004 0  -0.1 1.000000000000079 0  -0.1 0.9500000000001624 0  -0.1 0.9000000000003032 0  -0.1 0.850000000000444 0  -0.1 0.8000000000005848 0  -0.1 0.7500000000007256 0  -0.1 0.7000000000008665 0  -0.1 0.6500000000010508 0  -0.1 0.6000000000012352 0  -0.1 0.5500000000014196 0  -0.1 0.500000000001539 0  -0.1 0.4500000000014195 0  -0.1 0.4000000000013 0  -0.1 0.3500000000011588 0  -0.1 0.3000000000010178 0  -0.1 0.2500000000008986 0  -0.1 0.2000000000007579 0  -0.1 0.1500000000006174 0  -0.1 0.1000000000005272 0  -0.1 0.05000000000040083 0  -0.1 2.671196597248127e-13 0  -0.1 -0.0499999999998666 0  -0.0500000000000906 -0.1 0  -1.730560139634463e-13 -0.1 0  0.04999999999975802 -0.1 0  0.09999999999961506 -0.1 0  0.1499999999994613 -0.1 0  0.199999999999302 -0.1 0  0.2499999999991446 -0.1 0  0.2999999999990088 -0.1 0  0.3499999999988296 -0.1 0  0.3999999999986936 -0.1 0  0.4499999999985143 -0.1 0  0.4999999999984002 -0.1 0  0.5499999999985247 -0.1 0  0.5999999999986493 -0.1 0  0.6499999999987955 -0.1 0  0.6999999999989417 -0.1 0  0.7499999999990659 -0.1 0  0.7999999999992116 -0.1 0  0.8499999999993573 -0.1 0  0.8999999999994526 -0.1 0  0.949999999999584 -0.1 0  0.9999999999997226 -0.1 0  1.049999999999861 -0.1 0  1.1 -0.0500000000000906 0  1.1 -1.730560139634463e-13 0  1.1 0.04999999999975802 0  1.1 0.09999999999961506 0  1.1 0.1499999999994613 0  1.1 0.199999999999302 0  1.1 0.2499999999991446 0  1.1 0.2999999999990088 0  1.1 0.3499999999988296 0  1.1 0.3999999999986936 0  1.1 0.4499999999985143 0  1.1 0.4999999999984002 0  1.1 0.5499999999985247 0  1.1 0.5999999999986493 0  1.1 0.6499999999987955 0  1.1 0.6999999999989417 0  1.1 0.7499999999990659 0  1.1 0.7999999999992116 0  1.1 0.8499999999993573 0  1.1 0.8999999999994526 0  1.1 0.949999999999584 0  1.1 0.9999999999997226 0  1.1 1.049999999999861 0  1.05000000000004 1.1 0  1.000000000000079 1.1 0  0.9500000000001624 1.1 0  0.9000000000003032 1.1 0  0.850000000000444 1.1 0  0.8000000000005848 1.1 0  0.7500000000007256 1.1 0  0.7000000000008665 1.1 0  0.6500000000010508 1.1 0  0.6000000000012352 1.1 0  0.5500000000014196 1.1 0  0.500000000001539 1.1 0  0.4500000000014195 1.1 0  0.4000000000013 1.1 0  0.3500000000011588 1.1 0  0.3000000000010178 1.1 0  0.2500000000008986 1.1 0  0.2000000000007579 1.1 0  0.1500000000006174 1.1 0  0.1000000000005272 1.1 0  0.05000000000040083 1.1 0  2.671196597248127e-13 1.1 0  -0.0499999999998666 1.1 0  0.6226639587972381 0.7177769638080229 0  0.6441053826165345 0.7039926492057137 0  0.6637915156876478 0.688213256795993 0  0.681367506527133 0.6708282874673419 0  0.6969611968448517 0.6519933370899665 0  0.7106098552748352 0.6316908279896486 0  0.7222898277212139 0.6100551211684385 0  0.7319668224997666 0.5871134868728445 0  0.7393091698537048 0.5633243066920015 0  0.7442753570551912 0.5387566505040591 0  0.7467804177745057 0.5136585497087358 0  0.7468254037668819 0.4883022007095895 0  0.7444177422572505 0.4629884239411367 0  0.7395687088574753 0.4379578855032875 0  0.7322983472207901 0.4135114640122061 0  0.7226302605847829 0.3900440723936319 0  0.7105747127324253 0.3676808303340204 0  0.6963468711204427 0.3468404370887366 0  0.6799770200569506 0.3276719528086751 0  0.6618446189936742 0.3104732089018599 0  0.6425027628131288 0.2954618293546228 0  0.6218107192101688 0.2823598777821497 0  0.6000681410616895 0.2713842657147089 0  0.5774949043275082 0.2625682816003443 0  0.5540539001439138 0.2558086393670234 0  0.5298836738456144 0.2514285485803425 0  0.5051625206308223 0.2496335079646379 0  0.4799658627373229 0.2504637429676466 0  0.4548849519908496 0.253872277184698 0  0.4301216911349052 0.2599210226006137 0  0.4060146535147685 0.2684001578065714 0  0.3828437734091892 0.2794071153885996 0  0.3608799471002132 0.2926077731949868 0  0.3403612663177091 0.3078820586745262 0  0.3215182448221738 0.3250440168775566 0  0.3045324215293357 0.3438577320199134 0  0.2894880755403627 0.3640971888167609 0  0.2769940715158707 0.3853256571942442 0  0.266834559857006 0.4075057156061638 0  0.2591419933156524 0.4301672580207213 0  0.2538952498280865 0.4530010298307262 0  0.2508614811562607 0.4754700843543723 0  0.2496711983456829 0.4964997329755779 0  0.2501529046330641 0.5160747306681844 0  0.2522138732674449 0.5359514976516192 0  0.2561971804593793 0.5580365376952621 0  0.2622071462609373 0.5806502384946199 0  0.2705932774554857 0.6031121641590003 0  0.2816897511851451 0.6251444136178165 0  0.2953501995267846 0.6461343356816125 0  0.3116695937772928 0.6659129270407169 0  0.3301514151871486 0.684067886415163 0  0.3505438005357512 0.7004019611487043 0  0.3725688777829442 0.7146458630197278 0  0.3960301530958945 0.7265903971851591 0  0.4205904642823663 0.73604841558483 0  0.4460025055205697 0.7430892337618371 0  0.471891996022759 0.7475691857745651 0  0.4981476897912538 0.7493290070811748 0  0.5243601169048652 0.7483564937232298 0  0.5501691245759065 0.7446375736966534 0  0.5753990377149598 0.7382581978299139 0  0.2954248821875822 0.5964084079958769 0  0.2908936327451164 0.4076826350377328 0  0.6887120320306107 0.6330325047733537 0  0.7194873995209569 0.5489271269431706 0  0.60486860406536 0.7024396017453576 0  0.3288648265711954 0.3516842878995423 0  0.3844892153866531 0.3076134947202258 0  0.4498295121112141 0.2799656801583671 0  0.5411268915136765 0.2743848156505843 0  0.6527269612873815 0.3307703678121859 0  0.3372917871639914 0.6592991696624817 0  0.3935074701474511 0.697252817593546 0  0.7239165020870432 0.4785551684016082 0  0.7080944546172638 0.4093355306657051 0  0.2704045677885174 0.4708976069209335 0  0.5362569451728035 0.7228619541441325 0  0.4629406947860349 0.7217709167690841 0  0.5994864963619179 0.2946947872277251 0  0.2721588994345358 0.5409097863525197 0  0.6847435421190006 0.3703429211591275 0  0.4952084473435459 0.270686181941635 0  0.6442826368902409 0.6798247028325778 0  0.7091835629630417 0.5924419570234138 0  0.2654608029998036 0.5078314348411764 0  0.4057798185040259 0.2954262133186272 0  0.4061315250940141 0.3228455633368344 0  0.3869299024705868 0.3356706037779393 0  0.4089055309599458 0.3507520401107985 0  0.3886779790122953 0.3648238013784577 0  0.409004170599046 0.3781097212779644 0  0.4350827966603854 0.3680266571246367 0  0.39103831955149 0.3959905225208719 0  0.4220191911047563 0.4147147510889491 0  0.3916874928655706 0.435850688975769 0  0.4596087276080635 0.4086229403255676 0  0.4758582892443689 0.3614131246336376 0  0.5016623888908586 0.4082792915834271 0  0.5217978116617135 0.3661046703469968 0  0.544899416293362 0.4095741604576936 0  0.5635738984231778 0.369502454743563 0  0.587217903362411 0.4107441276716626 0  0.3685854196190072 0.4123571391068703 0  0.3623078555831506 0.4484798468647541 0  0.3917372862395131 0.4784142933446731 0  0.3629991993384863 0.4947333113981922 0  0.3891317976347537 0.5208988325235203 0  0.359538193971854 0.5364297862484706 0  0.3835031200253797 0.5623233624388084 0  0.3358666607098675 0.5108883225328429 0  0.355688543099193 0.576850713202454 0  0.3751351447927425 0.5991314231421282 0  0.4042102923811919 0.5919809622751989 0  0.6021627317325471 0.3758395118889591 0  0.6271811561600283 0.4052490989594595 0  0.6092952855529605 0.4408579914230448 0  0.6454770972645179 0.4349788116952947 0  0.6346368706020417 0.4715985561749417 0  0.5424301450370772 0.343817586872789 0  0.4034023962068341 0.623239058776915 0  0.4294763969554852 0.6178921424291923 0  0.588458364018421 0.4793382789560032 0  0.6129574019528411 0.5102544412862577 0  0.6487890417254323 0.5011357600373754 0  0.6436671174852454 0.5405250227406008 0  0.5957174669276857 0.550105164442968 0  0.6233125048895002 0.5835740316060426 0  0.5800635456783199 0.5913473302391199 0  0.6070223065264365 0.6258571985565936 0  0.5657823439751454 0.6379027250584483 0  0.54077296264
[...]
<PointData  Scalars="u"> 
<DataArray  type="Float64"  Name="u"  format="ascii">0.0000000000000000e+00  0.0000000000000000e+00  0.0000000000000000e+00  0.0000000000000000e+00  0.0000000000000000e+00  0.0000000000000000e+00  0.0000000000000000e+00  0.0000000000000000e+00  3.5309759768629839e-01  3.1750055895241192e-01  0.0000000000000000e+00  0.0000000000000000e+00  0.0000000000000000e+00  0.0000000000000000e+00  0.0000000000000000e+00  0.0000000000000000e+00  0.0000000000000000e+00  0.0000000000000000e+00  0.0000000000000000e+00  0.0000000000000000e+00  0.0000000000000000e+00  0.0000000000000000e+00  0.0000000000000000e+00  0.0000000000000000e+00  0.0000000000000000e+00  0.0000000000000000e+00  0.0000000000000000e+00  0.0000000000000000e+00  0.0000000000000000e+00  0.0000000000000000e+00  0.0000000000000000e+00  0.0000000000000000e+00  0.0000000000000000e+00  0.0000000000000000e+00  0.0000000000000000e+00  0.0000000000000000e+00  0.0000000000000000e+00  0.0000000000000000e+00  0.0000000000000000e+00  0.0000000000000000e+00  0.0000000000000000e+00  0.0000000000000000e+00  0.0000000000000000e+00  0.0000000000000000e+00  0.0000000000000000e+00  0.0000000000000000e+00  0.0000000000000000e+00  0.0000000000000000e+00  0.0000000000000000e+00  0.0000000000000000e+00  0.0000000000000000e+00  0.0000000000000000e+00  0.0000000000000000e+00  0.0000000000000000e+00  0.0000000000000000e+00  0.0000000000000000e+00  0.0000000000000000e+00  0.0000000000000000e+00  0.0000000000000000e+00  0.0000000000000000e+00  0.0000000000000000e+00  0.0000000000000000e+00  0.0000000000000000e+00  0.0000000000000000e+00  0.0000000000000000e+00  0.0000000000000000e+00  0.0000000000000000e+00  0.0000000000000000e+00  0.0000000000000000e+00  0.0000000000000000e+00  0.0000000000000000e+00  0.0000000000000000e+00  0.0000000000000000e+00  0.0000000000000000e+00  0.0000000000000000e+00  0.0000000000000000e+00  0.0000000000000000e+00  0.0000000000000000e+00  0.0000000000000000e+00  0.0000000000000000e+00  0.0000000000000000e+00  0.0000000000000000e+00  0.0000000000000000e+00  0.0000000000000000e+00  0.0000000000000000e+00  0.0000000000000000e+00  0.0000000000000000e+00  0.0000000000000000e+00  0.0000000000000000e+00  0.0000000000000000e+00  0.0000000000000000e+00  0.0000000000000000e+00  0.0000000000000000e+00  0.0000000000000000e+00  0.0000000000000000e+00  0.0000000000000000e+00  0.0000000000000000e+00  0.0000000000000000e+00  0.0000000000000000e+00  0.0000000000000000e+00  0.0000000000000000e+00  0.0000000000000000e+00  0.0000000000000000e+00  0.0000000000000000e+00  0.0000000000000000e+00  0.0000000000000000e+00  0.0000000000000000e+00  0.0000000000000000e+00  0.0000000000000000e+00  0.0000000000000000e+00  0.0000000000000000e+00  0.0000000000000000e+00  0.0000000000000000e+00  0.0000000000000000e+00  0.0000000000000000e+00  0.0000000000000000e+00  0.0000000000000000e+00  0.0000000000000000e+00  0.0000000000000000e+00  0.0000000000000000e+00  0.0000000000000000e+00  0.0000000000000000e+00  0.0000000000000000e+00  0.0000000000000000e+00  0.0000000000000000e+00  0.0000000000000000e+00  0.0000000000000000e+00  0.0000000000000000e+00  0.0000000000000000e+00  0.0000000000000000e+00  0.0000000000000000e+00  0.0000000000000000e+00  0.0000000000000000e+00  0.0000000000000000e+00  0.0000000000000000e+00  0.0000000000000000e+00  0.0000000000000000e+00  0.0000000000000000e+00  0.0000000000000000e+00  0.0000000000000000e+00  0.0000000000000000e+00  0.0000000000000000e+00  0.0000000000000000e+00  0.0000000000000000e+00  0.0000000000000000e+00  0.0000000000000000e+00  0.0000000000000000e+00  0.0000000000000000e+00  0.0000000000000000e+00  0.0000000000000000e+00  0.0000000000000000e+00  0.0000000000000000e+00  0.0000000000000000e+00  0.0000000000000000e+00  0.0000000000000000e+00  0.0000000000000000e+00  0.0000000000000000e+00  0.0000000000000000e+00  0.0000000000000000e+00  0.0000000000000000e+00  0.0000000000000000e+00  0.0000000000000000e+00  0.0000000000000000e+00  0.0000000000000000e+00  0.0000000000000000e+00  0.0000000000000000e+00  0.0000000000000000e+00  0.0000000000000000e+00  0.0000000000000000e+00  0.0000000000000000e+00  0.0000000000000000e+00  0.0000000000000000e+00  0.0000000000000000e+00  0.0000000000000000e+00  0.0000000000000000e+00  0.0000000000000000e+00  0.0000000000000000e+00  0.0000000000000000e+00  3.1805905553300778e-01  3.1840983163362757e-01  3.1803272955442524e-01  3.1810884204044992e-01  3.1828954426270328e-01  3.1825147118509006e-01  3.1842972625808469e-01  3.1841605986586019e-01  3.1788172507023466e-01  3.1771926116191812e-01  3.1761232906985121e-01  3.1761679732814391e-01  3.1761707095146224e-01  3.1734471371743389e-01  3.1692921580272509e-01  3.1678828033330853e-01  3.1678133666948366e-01  3.1658308604432933e-01  3.1670515167972307e-01  3.1683649988919560e-01  3.1727780324295679e-01  3.1735743909688524e-01  3.1710684450796578e-01  3.1691717723472995e-01  3.1618355892216965e-01  3.1554240427651425e-01  3.1569104082196503e-01  3.1607055726376942e-01  3.1612527654870082e-01  3.1666175113894124e-01  3.1663273077287696e-01  3.1717618933813735e-01  3.1755851823857917e-01  3.1783988994039369e-01  3.1821110271552522e-01  3.1842630902797903e-01  3.1773119856401988e-01  3.1758316483287424e-01  3.1758932886457469e-01  3.1762660828034212e-01  3.1781614288047533e-01  3.1774107161665932e-01  3.1743592259841613e-01  3.1783411251205573e-01  3.1806419005697573e-01  3.1826282392793281e-01  3.1753847753301689e-01  3.1680513093521279e-01  3.1716575098213190e-01  3.1717333801020364e-01  3.1816743883649795e-01  3.1858145765539014e-01  3.1845001356440300e-01  3.1820493812018802e-01  3.1830326859552244e-01  3.1866608861033330e-01  3.1828903220505622e-01  3.1765869430229637e-01  3.1761754489440958e-01  3.1754012288647093e-01  3.1756090207516158e-01  3.1742467692433751e-01  3.3234356368405171e-01  3.3146656640615085e-01  3.3065109570018647e-01  3.3176064751667866e-01  3.3166414751568923e-01  3.3191502073448742e-01  3.3181742782811346e-01  3.3112348558400329e-01  3.3017547553498916e-01  3.3046338434281863e-01  3.3221728781275378e-01  3.3283028621330590e-01  3.3145292986844954e-01  3.3084502967926321e-01  3.3062116693476623e-01  3.3204983970677027e-01  3.3234518145564385e-01  3.3061373436919961e-01  3.3073389718983515e-01  3.3125487997172004e-01  3.3004446501908108e-01  3.3100825476990203e-01  3.3117414887148594e-01  3.2986870877849006e-01  3.3135104199888288e-01  3.3480105852231012e-01  3.3503555870627361e-01  3.3790334852109910e-01  3.3827231013438952e-01  3.4059161684157352e-01  3.4091530126170333e-01  3.4095963803549068e-01  3.4539477389923690e-01  3.4454083616899794e-01  3.4755279553856278e-01  3.4165936009947756e-01  3.4857855677785804e-01  3.4235432847158870e-01  3.4735953597782349e-01  3.4122117581751710e-01  3.4444447125085415e-01  3.4022088147819152e-01  3.4194091034217083e-01  3.4658725856821737e-01  3.4363537785115333e-01  3.4612770368973794e-01  3.4214398823399433e-01  3.4385869239779016e-01  3.3985543540343305e-01  3.3989999346892819e-01  3.4043472671532438e-01  3.4346564935828744e-01  3.3942732851375051e-01  3.3946529676281517e-01  3.4431355784298112e-01  3.3961372374868415e-01  3.4227822266713004e-01  3.3865393066685578e-01  3.4043554174296314e-01  3.4317442645465396e-01  3.4815936042603635e-01  3.4586074975371484e-01  3.4080259678637420e-01  3.4111432193239455e-01  3.4700367653165126e-01  3.4126652887516218e-01  3.4567258995669625e-01  3.3905057255977888e-01  3.4096113421253454e-01  3.4672436973399329e-01  3.4165527049662914e-01  3.3756918642760209e-01  3.4596467134230630e-01  3.4073696605584530e-01  3.3775902183300671e-01  3.4915220297515437e-01  3.3804177789004358e-01  3.3629899484288162e-01  3.3468035325112139e-01  3.3727978473347586e-01  3.3597043415435768e-01  3.3830266490632432e-01  3.4831875975357418e-01  3.3487932874962989e-01  3.3739086242846289e-01  3.3737777243448808e-01  3.3638438122812830e-01  3.3427169257665396e-01  3.3753351159290951e-01  3.3641560736317705e-01  3.3797499061289316e-01  3.3554475341260320e-01  3.3575952452216051e-01  3.3813898004966653e-01  3.3411530139894174e-01  3.3564248756658283e-01  3.3450993694689007e-01  3.3664126760544733e-01  3.3801398182188058e-01  3.3542430425625958e-01  3.3758386682956754e-01  3.3535970383397556e-01  3.3715822104055693e-01  3.3531529335705457e-01  3.3509391226943996e-01  3.3664837789537977e-01  3.3383702975228374e-01  3.3927210256743429e-01  3.3679088255443951e-01  3.3660530263289262e-01  3.3446868813315023e-01  3.3574907698063078e-01  3.3367075466517732e-01  3.3511547430437927e-01  3.3892686903520375e-01  3.3378685104449118e-01  3.3309489689256866e-01  3.3454712258506247e-01  3.5062945136737095e-01  3.3162592186644851e-01  3.3624412156894262e-01  3.5082464251766188e-01  3.4202514125756567e-01  3.3737705531058526e-01  3.3541659390255990e-01  3.3784051239435092e-01  3.3758149958482647e-01  3.3499760255343541e-01  3.3546876029770978e-01  3.5018971190734455e-01  3.3400423354014108e-01  3.3188414989574266e-01  3.3600485941401448e-01  3.3415053784510484e-01  3.3186191511848639e-01  3.4944986155003921e-01  3.3285937419590661e-01  3.3230007354720192e-01  3.3182650639264449e-01  3.3091575139998208e-01  3.3119500402648883e-01  3.3153156435274123e-01  3.3481783707861462e-01  3.3102469493698999e-01  3.3779804194103497e-01  3.3113752870164714e-01  3.3442746526394945e-01  3.3393378229169202e-01  3.3191832281349670e-01  3.3105714748695109e-01  3.3477918245911781e-01  3.3091309465856394e-01  3.3031318957794736e-01  3.3073848148260393e-01  3.3697065439458451e-01  3.3515781015962159e-01  3.3173281158541296e-01  3.3226238616808329e-01  3.3373173708548304e-01  3.3093533529124092e-01  3.3424273599380744e-01  3.3141387965882879e-01  3.3130529291233124e-01  3.4730785172238277e-01  3.3526508279233719e-01  3.2996786888946272e-01  3.3498335000801183e-01  3.3406650036006624e-01  3.3153483718930654e-01  3.2961597508405888e-01  3.3245298879115687e-01  3.3165595956911259e-01  3.4885983556147887e-01  3.3778843168226297e-01  3.3100155646152751e-01  3.3096651198776339e-01  3.3064165212122693e-01  3.2951272334187648e-01  3.3475380130106969e-01  3.4798970788903172e-01  3.5185752290765371e-01  3.3173885689171240e-01  3.3310697077236756e-01  3.3301794158443992e-01  3.3273018736939125e-01  3.3894048324299342e-01  3.3048496699792873e-01  3.5009014944459643e-01  3.3777205082627554e-01  3.3311735068772641e-01  3.2947610155637197e-01  3.5246929390687243e-01  3.3423352423083269e-01  3.3467396711421421e-01  3.3358950882541227e-01  3.3290417950810297e-01  3.3060590261600120e-01  3.3310040717360756e-01  3.3270900747635079e-01  3.3248806775465112e-01  3.2997005296645304e-01  3.2943544350379639e-01  3.3621605155337547e-01  3.3666919732020201e-01  3.3400994590964744e-01  3.3071133042759948e-01  3.3338237247927976e-01  3.2870570419867368e-01  3.3880597325267120e-01  3.3245147851233003e-01  3.3453705302793751e-01  3.3443577407799951e-01  3.4789019911448865e-01  3.3650927598349240e-01  3.3097487845353624e-01  3.3389434409660507e-01  3.3184467400325751e-01  3.2825259649977856e-01  3.5180313670715785e-01  3.3558068053625684e-01  3.3367030085286026e-01  3.2838833316754729e-01  3.5076104953075893e-01  3.3302072182012443e-01  3.3276868646364927e-01  3.3675909815799232e-01  3.3255670790654185e-01  3.3813578927981641e-01  3.3756424427887877e-01  3.3279060768629942e-01  3.3524928873080828e-01  3.3327786093832695e-01  3.3780569744353128e-01  3.3910130537081307e-01  3.3354972253951387e-01  3.3287720289180395e-01  3.3711587524915881e-01  3.3448078023039235e-01  3.3800040154480154e-01  3.3283549130859752e-01  3.3815723316684770e-01  3.3458035019823512e-01  3.2973275929719775e-01  3.3404050352154341e-01  3.3711662838801359e-01  3.3762382335789970e-01  3.5044581767208755e-01  3.3680615811505404e-01  3.4022319835124371e-01  3.3855297255317646e-01  3.3762938539994697e-01  3.3845631738347148e-01  3.3964470785075435e-01  3.3971976893524619e-01  3.3834987298023705e-01  3.3161377533219405e-01  2.9359727486513515e-01  2.9449500273664786e-01  2.8643433257367940e-01  2.8487760042933286e-01  2.8686145549272590e-01  2.8880384162981620e-01  2.9015806108443964e-01  2.8383473742863780e-01  2.9173974640156447e-01  2.8566542722466204e-01  2.8968012510849994e-01  2.8840296533386789e-01  2.9303515152428355e-01  2.9025627812223664e-01  2.8700517386483299e-01  1.2321829167002519e-02  1.4645681114644649e-02  2.9061126418232752e-01  2.9081442091974025e-01  1.4307139875180001e-02  1.8073055765885748e-02  1.5802035278478087e-02  2.9132841567510948e-01  1.4693941531456528e-02  1.7427216926758530e-02  2.8706972764793293e-01  2.8263838603003971e-01  2.0711146878093868e-02  2.8531114113934936e-01  1.9267973924257220e-02  2.4014424097084233e-02  2.8902917340794604e-01  2.8379258519425016e-01  2.8836241630240783e-01  2.9212227921477384e-02  2.8288768846663224e-02  3.0434425658273680e-02  3.0998751593155054e-02  2.7486121832804644e-01  3.0822769799689006e-02  2.9435076300541839e-02  3.2567312518573296e-02  3.8182785738461983e-02  3.8081411789299864e-02  2.5343222910151564e-02  6.3280198813128541e-03  6.0738404861691783e-03  8.5463030555517627e-03  8.3845295396592634e-03  3.9022246231366284e-02  4.3774132104580830e-02  5.7211227770107816e-03  6.4833155587707162e-03  6.6698297835018636e-03  8.0301278657246497e-03  2.7068265836668176e-01  2.2767385814586197e-01  2.1943863140944703e-01  2.3051954394006213e-01  1.7675602856289580e-01  1.6430740163267096e-01  1.2553940425318755e-01  2.0181380814298303e-01  1.5338063532398544e-01  1.7631667969727965e-01  1.3424639804532454e-01  1.2779161060802635e-01  1.5498244273688597e-01  1.0398789594064001e-01  1.2074977975801568e-01  1.6568135005900225e-01  1.4058058920976510e-01  1.7956804302866583e-01  1.4416233410229223e-01  1.0785234833302833e-01  1.1458407612367590e-01  1.5789085169793099e-01  1.2170794390757331e-01  1.5761108518841904e-01  1.2340918446681315e-01  1.6040138117801583e-01  1.2123091157980766e-01  9.2231396017925349e-02  1.5671987936905096e-01  1.1569927418339843e-01  1.4330829486142230e-01  1.0588311344251661e-01  1.3066832780182000e-01  8.2815971563929530e-02  8.8792999598551040e-02  7.2763986190813840e-02  1.7205198977854494e-01  1.6205511511417517e-01  1.1652621284379998e-01  1.3992835107312804e-01  2.1872606122343233e-01  1.9773201916245670e-01  2.0578491613800129e-01  1.8861277786751479e-01  9.8591372717577425e-02  1.1972712183564860e-01  1.6437188104392861e-01  1.4108323951353474e-01  1.8898075710363987e-01  1.6399285027538760e-01  1.1115129323485855e-01  1.2855615839744844e-01  1.8365020541430552e-01  1.5443444813101315e-01  1.0381773379080633e-01  1.1877609320099877e-01  1.6463318897242873e-01  1.2917156823682255e-01  1.7103060771345210e-01  1.4050386429184825e-01  1.8034038500604638e-01  1.3977558711684115e-01  1.7478610340532327e-01  1.3627458906045067e-01  1.7109675889019732e-01  1.2703699634920959e-01  1.5465022085686600e-01  1.1497690584653206e-01  1.3772247955158168e-01  1.0052692508824469e-01  1.1877232254091108e-01  8.1313941355991168e-02  6.9267854355068048e-02  1.0230278383029666e-01  1.6346814509344310e-01  1.3447049589746798e-01  9.8218360962954790e-02  1.1088963552768345e-01  1.6064371258135177e-01  1.2317221330534342e-01  1.6549021268308223e-01  1.3032474007435307e-01  5.3736774638027299e-02  7.5960901318060020e-02  1.7138310507419757e-01  1.3474889901504802e-01  1.8133365981841204e-01  1.3754337178073592e-01  1.8408685295688421e-01  1.3847578429826940e-01  1.8274426148391035e-01  1.3510732262962943e-01  1.6999669638924750e-01  1.2751441115736578e-01  1.6551667633891179e-01  1.1934185910148301e-01  1.5192449073206796e-01  1.0790522571921773e-01  1.3149826317114591e-01  9.3257006338862997e-02  1.1277115142921666e-01  7.7420445780741046e-02  9.3112270961347735e-02  1.2987547731297169e-01  1.0604392714176372e-01  7.4070812497533167e-02  8.3205304966890520e-02  1.1522383560029775e-01  8.8513864564757003e-02  1.1936602756493350e-01  8.9708308446049018e-02  1.1878357311261085e-01  8.7304420513888453e-02  1.1391773305854908e-01  6.0875412558522357e-02  1.5452237982455946e-01  8.2597790389500506e-02  1.0630555716246060e-01  1.4403346446364618e-01  1.3075143291563174e-01  9.4635693346980354e-02  1.7435776103712763e-01  9.2672093526310492e-02  1.1692489276098388e-01  1.5859606207426172e-01  1.4045669122175561e-01  9.9642147817814303e-02  1.2087389219086522e-01  1.6379830012017735e-01  1.4179091543875913e-01  1.9072303464745924e-01  1.6193515603635963e-01  1.2059881200078074e-01  1.4377081269842201e-01  1.0005590546198995e-01  1.1598147674289430e-01  1.5548126231878637e-01  1.2910734348275932e-01  1.6765724284686784e-01  1.4090832548957649e-01  1.0534039149102023e-01  1.1425353940426120e-01  1.4944892308812888e-01  1.2005670263396025e-01  1.5417033180941722e-01  1.2312667215960066e-01  9.2962020822270411e-02  9.3707522726286754e-02  1.2269329702984830e-01  6.8203080446227152e-02  9.1548262893435456e-02  1.1852535202285940e-01  8.3142910781850751e-02  1.5493170840027862e-01  1.4703675701382396e-01  1.1046084569654195e-01  1.4277948649082148e-01  1.8842932506130736e-01  1.9776232505964159e-01  1.9362947562972704e-01  9.7734067365425392e-02  4.4063134081233774e-02  7.3850548356076851e-02  6.2349755768787228e-02  5.5540225376779676e-02  2.1006937206007126e-01  9.6895665362397451e-02  9.9137724907057731e-02  1.2585310526927679e-01  7.6461590031149454e-02  2.1067407724255605e-01  1.9341611596757996e-01  9.2598995435014361e-02  1.7198925244624913e-01  1.4879522957801014e-01  5.9678420465521888e-02  8.1848945286051022e-02  5.9355074862015494e-02  2.1006977939322741e-01  2.3771547181652100e-01  2.2904342535140509e-01  8.0054177923341033e-02  1.0022001345089546e-01  6.6554983827485023e-02  4.5546389997917748e-02  4.6977353415555631e-02  6.6569203239509489e-02  2.9845955214356457e-02  3.1998873228052734e-02  6.3651450296401041e-02  6.1455578145795914e-02  7.9646070752643336e-02  2.9517821692589461e-02  4.4698961002457030e-02  5.5501118767576865e-02  6.1765621130005367e-02  3.9941495839122897e-02  4.3169906736776960e-02  4.3274528020926954e-02  2.0259463627582303e-01  2.1008266973660805e-01  2.0578644769231272e-01  2.1998879123678533e-01  2.1402942267152422e-01  2.1084455637413296e-01  2.3151002487855160e-01  9.1165108218847657e-02  8.1147995795035247e-02  2.2859337907277127e-01  4.7366698017128443e-02  8.9635266805758743e-02  2.2225191006585929e-01  2.1912224118698920e-01  4.1436383751670691e-02  2.5651009909725287e-02  2.2249440667444895e-01  2.4820051686495245e-01  2.3900015020351389e-01  2.6855340172287290e-01  2.2498422460593123e-01  2.6271370886420814e-01  4.5428049626567435e-02  3.3355293447336551e-02  2.3203004423902562e-01  8.3313408040857601e-02  8.3037983802469559e-02  2.0341976627505612e-01  7.8431974867053347e-02  4.8500468540224578e-02  5.2129710141521672e-02  4.1655356233984135e-02  2.8298123839275979e-01  2.4956020688060010e-01  2.4862588464903829e-01  2.4445346998908396e-01  2.0566078420989264e-01  2.4859777155869975e-01  2.0443143617556772e-01  2.1045496942365252e-01  2.3049889586017916e-01  2.1045768548153829e-01  2.3848161963414935e-01  2.1962046157262216e-01  2.0703690666158112e-01  2.2275943481467300e-01  1.9142218179276149e-01  2.3444141857811743e-01  2.8394327224142885e-01  2.7414455666969217e-01  2.3097305311781735e-01  2.1552861101044526e-01  2.5394795397111575e-01  2.4268462804405938e-01  2.8724595741741127e-01  1.7929230532411120e-02  2.8133852997060033e-01  2.8285039473886570e-01  2.3854922509730276e-02  2.4144601902080681e-01  1.9286174344800214e-01  2.3188510113727839e-01  2.4087058987911646e-02  1.7403360467286050e-01  2.3028106110522462e-02  2.6867895466355412e-02  4.4135975925851521e-02  2.3830035890409201e-02  4.3002748680456226e-02  2.8891100295236544e-01  2.5481984271763108e-01  2.5430916703587697e-01  2.4796066350583079e-01  2.1499987864052392e-01  2.1713658658684226e-01  2.7190683360119605e-01  2.3289394789888959e-01  2.1282534901906319e-01  1.4860575220544982e-02  1.6092167930512014e-01  2