<?xml version="1.0"?>
<VTKFile type="UnstructuredGrid"  version="0.1"  >
<UnstructuredGrid>
<Piece  NumberOfPoints="1256" NumberOfCells="2414">
<Points>
<DataArray  type="Float64"  NumberOfComponents="3"  format="ascii">0 0 0  0 1 0  1 1 0  1 0 0  1.1 -0.1 0  -0.1 -0.1 0  1.1 1.1 0  -0.1 1.1 0  0.5071766752913018 0.5178964210070971 0  0.6001094486169887 0.727953210606583 0  0 0.9499999999997918 0  0 0.8999999999995836 0  0 0.8499999999996529 0  0 0.7999999999999998 0  0 0.7500000000003466 0  0 0.7000000000006934 0  0 0.6500000000010401 0  0 0.6000000000013869 0  0 0.5500000000017335 0  0 0.5000000000020587 0  0 0.4500000000018723 0  0 0.4000000000016644 0  0 0.3500000000014564 0  0 0.3000000000012483 0  0 0.2500000000010403 0  0 0.2000000000008322 0  0 0.1500000000006241 0  0 0.100000000000416 0  0 0.05000000000020799 0  0.04999999999989965 0 0  0.09999999999981467 0 0  0.1499999999997036 0 0  0.1999999999995579 0 0  0.2499999999994121 0 0  0.2999999999992664 0 0  0.3499999999991206 0 0  0.3999999999989749 0 0  0.4499999999988292 0 0  0.4999999999986943 0 0  0.5499999999988151 0 0  0.5999999999989468 0 0  0.6499999999990784 0 0  0.69999999999921 0 0  0.7499999999993417 0 0  0.7999999999994734 0 0  0.8499999999996051 0 0  0.8999999999997368 0 0  0.9499999999998684 0 0  1 0.04999999999989965 0  1 0.09999999999981467 0  1 0.1499999999997036 0  1 0.1999999999995579 0  1 0.2499999999994121 0  1 0.2999999999992664 0  1 0.3499999999991206 0  1 0.3999999999989749 0  1 0.4499999999988292 0  1 0.4999999999986943 0  1 0.5499999999988151 0  1 0.5999999999989468 0  1 0.6499999999990784 0  1 0.69999999999921 0  1 0.7499999999993417 0  1 0.7999999999994734 0  1 0.8499999999996051 0  1 0.8999999999997368 0  1 0.9499999999998684 0  0.9499999999997918 1 0  0.8999999999995836 1 0  0.8499999999996529 1 0  0.7999999999999998 1 0  0.7500000000003466 1 0  0.7000000000006934 1 0  0.6500000000010401 1 0  0.6000000000013869 1 0  0.5500000000017335 1 0  0.5000000000020587 1 0  0.4500000000018723 1 0  0.4000000000016644 1 0  0.3500000000014564 1 0  0.3000000000012483 1 0  0.2500000000010403 1 0  0.2000000000008322 1 0  0.1500000000006241 1 0  0.100000000000416 1 0  0.05000000000020799 1 0  -0.1 1.05000000000004 0  -0.1 1.000000000000079 0  -0.1 0.9500000000001624 0  -0.1 0.9000000000003032 0  -0.1 0.850000000000444 0  -0.1 0.8000000000005848 0  -0.1 0.7500000000007256 0  -0.1 0.7000000000008665 0  -0.1 0.6500000000010508 0  -0.1 0.6000000000012352 0  -0.1 0.5500000000014196 0  -0.1 0.500000000001539 0  -0.1 0.4500000000014195 0  -0.1 0.4000000000013 0  -0.1 0.3500000000011588 0  -0.1 0.3000000000010178 0  -0.1 0.2500000000008986 0  -0.1 0.2000000000007579 0  -0.1 0.1500000000006174 0  -0.1 0.1000000000005272 0  -0.1 0.05000000000040083 0  -0.1 2.671196597248127e-13 0  -0.1 -0.0499999999998666 0  -0.0500000000000906 -0.1 0  -1.730560139634463e-13 -0.1 0  0.04999999999975802 -0.1 0  0.09999999999961506 -0.1 0  0.1499999999994613 -0.1 0  0.199999999999302 -0.1 0  0.2499999999991446 -0.1 0  0.2999999999990088 -0.1 0  0.3499999999988296 -0.1 0  0.3999999999986936 -0.1 0  0.4499999999985143 -0.1 0  0.4999999999984002 -0.1 0  0.5499999999985247 -0.1 0  0.5999999999986493 -0.1 0  0.6499999999987955 -0.1 0  0.6999999999989417 -0.1 0  0.7499999999990659 -0.1 0  0.7999999999992116 -0.1 0  0.8499999999993573 -0.1 0  0.8999999999994526 -0.1 0  0.949999999999584 -0.1 0  0.9999999999997226 -0.1 0  1.049999999999861 -0.1 0  1.1 -0.0500000000000906 0  1.1 -1.730560139634463e-13 0  1.1 0.04999999999975802 0  1.1 0.09999999999961506 0  1.1 0.1499999999994613 0  1.1 0.199999999999302 0  1.1 0.2499999999991446 0  1.1 0.2999999999990088 0  1.1 0.3499999999988296 0  1.1 0.3999999999986936 0  1.1 0.4499999999985143 0  1.1 0.4999999999984002 0  1.1 0.5499999999985247 0  1.1 0.5999999999986493 0  1.1 0.6499999999987955 0  1.1 0.6999999999989417 0  1.1 0.7499999999990659 0  1.1 0.7999999999992116 0  1.1 0.8499999999993573 0  1.1 0.8999999999994526 0  1.1 0.949999999999584 0  1.1 0.9999999999997226 0  1.1 1.049999999999861 0  1.05000000000004 1.1 0  1.000000000000079 1.1 0  0.9500000000001624 1.1 0  0.9000000000003032 1.1 0  0.850000000000444 1.1 0  0.8000000000005848 1.1 0  0.7500000000007256 1.1 0  0.7000000000008665 1.1 0  0.6500000000010508 1.1 0  0.6000000000012352 1.1 0  0.5500000000014196 1.1 0  0.500000000001539 1.1 0  0.4500000000014195 1.1 0  0.4000000000013 1.1 0  0.3500000000011588 1.1 0  0.3000000000010178 1.1 0  0.2500000000008986 1.1 0  0.2000000000007579 1.1 0  0.1500000000006174 1.1 0  0.1000000000005272 1.1 0  0.05000000000040083 1.1 0  2.671196597248127e-13 1.1 0  -0.0499999999998666 1.1 0  0.6230971635516984 0.7165441810934976 0  0.6445781516536185 0.7028439633275941 0  0.6643361822231111 0.6871657918465778 0  0.6819620729972137 0.6698282853364718 0  0.6976061845017081 0.6510236441779375 0  0.7113278485930447 0.6307483828623571 0  0.7230536821106708 0.6091134610691595 0  0.7327471452856483 0.5861466709716446 0  0.740130353389529 0.5623430710220703 0  0.7451321954152854 0.5377566648596503 0  0.747679038554523 0.5126341843867066 0  0.747767191652305 0.4872452174500619 0  0.7453941352661987 0.4618928196806601 0  0.7405632769979641 0.4368188667848222 0  0.7332958556517101 0.4123276017320922 0  0.7236265432427362 0.3888175481338636 0  0.7115584370138468 0.366408386135534 0  0.6973093687668231 0.3455269630078527 0  0.6809208932967424 0.3263065870454316 0  0.6627710445979164 0.3090512542382585 0  0.6433919017212558 0.2940042588301045 0  0.6226372071785961 0.2808866886627451 0  0.6008279125768522 0.2699163260381775 0  0.5781843351571933 0.2611227631059699 0  0.5546695014767572 0.2544382082627801 0  0.5304461500129947 0.2501335377788031 0  0.5056934886461667 0.2484002247872746 0  0.4804633662807425 0.249276191141173 0  0.4553681961896228 0.2527270198828952 0  0.4305839715680867 0.2587897415880035 0  0.4064563388899399 0.2672953082545085 0  0.3832652023576693 0.2783108560812116 0  0.3612879045243497 0.291540464469817 0  0.3407631126994222 0.306844754246191 0  0.3219172937939651 0.3240347619757227 0  0.3049325892286059 0.3428740067884593 0  0.2899136698724175 0.3631488661618849 0  0.2774259785666185 0.3843849423623415 0  0.2672570307482315 0.4065688290270549 0  0.2595243384983342 0.4292222606871609 0  0.2541848662918395 0.4520391057659434 0  0.2510583520347336 0.474499400519126 0  0.2498606752246609 0.495536611414798 0  0.2504011649901388 0.5151203553877628 0  0.2524710234672137 0.5350048876524445 0  0.2565611943803149 0.5570594114563242 0  0.2627323723495887 0.5796057630300376 0  0.2712210596967445 0.6019750555586234 0  0.2824050569776638 0.6239109777571926 0  0.2960965294916706 0.6448278937284607 0  0.3124268393878644 0.664549115445587 0  0.3308956697496856 0.6826689534052338 0  0.3512646673621383 0.6989744654495361 0  0.3732669382611273 0.7131905243599945 0  0.3967003312273276 0.7251032041101229 0  0.4212413297011364 0.7345209740266903 0  0.4466213037012051 0.7415442020080328 0  0.4724647170618608 0.7460267741740351 0  0.4986712849410988 0.7477949835602992 0  0.5248383138812126 0.7468569897288425 0  0.5506105922730193 0.7431793036628564 0  0.5758302976711059 0.7368628586709027 0  0.2960233334301617 0.5951979069582055 0  0.2913203038183751 0.4067035554842265 0  0.689408907806853 0.632015748580255 0  0.7203211679312204 0.5478854773611823 0  0.6053714863342813 0.7011550256325102 0  0.32929724485762 0.350653009091496 0  0.3849433250742632 0.3065102616247619 0  0.4503414179816422 0.2788040395782495 0  0.5417701336396022 0.2730547011354768 0  0.6536326908637885 0.3293771120608134 0  0.338008395034852 0.6579214777538392 0  0.3941827842363864 0.6957918142228716 0  0.7248498788900426 0.4774376938544224 0  0.7090626698685 0.4081100809301378 0  0.2706857790097152 0.4699092405869912 0  0.5367705860442318 0.721401893869663 0  0.4635448851221478 0.7202506788413831 0  0.6002787740561689 0.293260971572649 0  0.2725026004591632 0.5398737313215251 0  0.6856898475938431 0.3690408487235345 0  0.4957688621892504 0.2694590672469017 0  0.6448499549197879 0.6786846435646287 0  0.7099586027004391 0.5914374471144858 0  0.2657304999966419 0.5068302404376305 0  0.4062490031699312 0.2943049822502634 0  0.4066308576790961 0.3217103467553758 0  0.3874157823931263 0.3345540477620265 0  0.4094347183387801 0.3495991741367578 0  0.3891902035818867 0.3636911678308774 0  0.4095531938360618 0.3769413055265233 0  0.4356642362743498 0.3668305139136552 0  0.391572058572407 0.3948369645773934 0  0.4226064113617488 0.4135056529221809 0  0.3922357640530467 0.4346673315043748 0  0.4602494592217944 0.407374767185489 0  0.4764988123448405 0.3601705643680503 0  0.5023657534256338 0.4069917868269328 0  0.5225143004022111 0.3648075538456847 0  0.5456641967622615 0.4082595623308243 0  0.5643558338634234 0.3681678460344213 0  0.5880381329355713 0.4094206813999659 0  0.3690938419730022 0.4112286281409823 0  0.3628111968163022 0.447333150534816 0  0.3922975193101571 0.4771902680512355 0  0.3635151075812001 0.4935346642802619 0  0.3897072811371274 0.5196294029863231 0  0.3600792588338481 0.5351818226702232 0  0.3841038150581179 0.5610089935268036 0  0.33633653755849 0.5097178007935377 0  0.3562791973578641 0.5755531717657496 0  0.3757670334091505 0.5977819468585938 0  0.4048493237774615 0.5906123117541379 0  0.6030006099093047 0.3744929462072681 0  0.6280507647135407 0.4039328851323118 0  0.6101367757624852 0.4395572577255215 0  0.6463599594524904 0.4337021577698179 0  0.6354913074248215 0.4703376855587516 0  0.5431659837598012 0.3424965039533048 0  0.4040574111561547 0.6218391716038947 0  0.4301319820172362 0.6164821682073449 0  0.5892647890875634 0.4780392626867977 0  0.6137692130442617 0.5089882552803189 0  0.6496350650478677 0.4999134156384388 0  0.6444753507879802 0.5393200687739637 0  0.5964871951072259 0.5488254184104934 0  0.6240634578579207 0.5823498453833412 0  0.5807849459269455 0.5900418749192995 0  0.6077065929548708 0.6246006993655935 0  0.5664390442932015 0.6365566157069139 0  0.541465926824
[...]
<PointData  Scalars="u"> 
<DataArray  type="Float64"  Name="u"  format="ascii">0.0000000000000000e+00  0.0000000000000000e+00  0.0000000000000000e+00  0.0000000000000000e+00  0.0000000000000000e+00  0.0000000000000000e+00  0.0000000000000000e+00  0.0000000000000000e+00  3.5322707400199682e-01  3.1767347130501244e-01  0.0000000000000000e+00  0.0000000000000000e+00  0.0000000000000000e+00  0.0000000000000000e+00  0.0000000000000000e+00  0.0000000000000000e+00  0.0000000000000000e+00  0.0000000000000000e+00  0.0000000000000000e+00  0.0000000000000000e+00  0.0000000000000000e+00  0.0000000000000000e+00  0.0000000000000000e+00  0.0000000000000000e+00  0.0000000000000000e+00  0.0000000000000000e+00  0.0000000000000000e+00  0.0000000000000000e+00  0.0000000000000000e+00  0.0000000000000000e+00  0.0000000000000000e+00  0.0000000000000000e+00  0.0000000000000000e+00  0.0000000000000000e+00  0.0000000000000000e+00  0.0000000000000000e+00  0.0000000000000000e+00  0.0000000000000000e+00  0.0000000000000000e+00  0.0000000000000000e+00  0.0000000000000000e+00  0.0000000000000000e+00  0.0000000000000000e+00  0.0000000000000000e+00  0.0000000000000000e+00  0.0000000000000000e+00  0.0000000000000000e+00  0.0000000000000000e+00  0.0000000000000000e+00  0.0000000000000000e+00  0.0000000000000000e+00  0.0000000000000000e+00  0.0000000000000000e+00  0.0000000000000000e+00  0.0000000000000000e+00  0.0000000000000000e+00  0.0000000000000000e+00  0.0000000000000000e+00  0.0000000000000000e+00  0.0000000000000000e+00  0.0000000000000000e+00  0.0000000000000000e+00  0.0000000000000000e+00  0.0000000000000000e+00  0.0000000000000000e+00  0.0000000000000000e+00  0.0000000000000000e+00  0.0000000000000000e+00  0.0000000000000000e+00  0.0000000000000000e+00  0.0000000000000000e+00  0.0000000000000000e+00  0.0000000000000000e+00  0.0000000000000000e+00  0.0000000000000000e+00  0.0000000000000000e+00  0.0000000000000000e+00  0.0000000000000000e+00  0.0000000000000000e+00  0.0000000000000000e+00  0.0000000000000000e+00  0.0000000000000000e+00  0.0000000000000000e+00  0.0000000000000000e+00  0.0000000000000000e+00  0.0000000000000000e+00  0.0000000000000000e+00  0.0000000000000000e+00  0.0000000000000000e+00  0.0000000000000000e+00  0.0000000000000000e+00  0.0000000000000000e+00  0.0000000000000000e+00  0.0000000000000000e+00  0.0000000000000000e+00  0.0000000000000000e+00  0.0000000000000000e+00  0.0000000000000000e+00  0.0000000000000000e+00  0.0000000000000000e+00  0.0000000000000000e+00  0.0000000000000000e+00  0.0000000000000000e+00  0.0000000000000000e+00  0.0000000000000000e+00  0.0000000000000000e+00  0.0000000000000000e+00  0.0000000000000000e+00  0.0000000000000000e+00  0.0000000000000000e+00  0.0000000000000000e+00  0.0000000000000000e+00  0.0000000000000000e+00  0.0000000000000000e+00  0.0000000000000000e+00  0.0000000000000000e+00  0.0000000000000000e+00  0.0000000000000000e+00  0.0000000000000000e+00  0.0000000000000000e+00  0.0000000000000000e+00  0.0000000000000000e+00  0.0000000000000000e+00  0.0000000000000000e+00  0.0000000000000000e+00  0.0000000000000000e+00  0.0000000000000000e+00  0.0000000000000000e+00  0.0000000000000000e+00  0.0000000000000000e+00  0.0000000000000000e+00  0.0000000000000000e+00  0.0000000000000000e+00  0.0000000000000000e+00  0.0000000000000000e+00  0.0000000000000000e+00  0.0000000000000000e+00  0.0000000000000000e+00  0.0000000000000000e+00  0.0000000000000000e+00  0.0000000000000000e+00  0.0000000000000000e+00  0.0000000000000000e+00  0.0000000000000000e+00  0.0000000000000000e+00  0.0000000000000000e+00  0.0000000000000000e+00  0.0000000000000000e+00  0.0000000000000000e+00  0.0000000000000000e+00  0.0000000000000000e+00  0.0000000000000000e+00  0.0000000000000000e+00  0.0000000000000000e+00  0.0000000000000000e+00  0.0000000000000000e+00  0.0000000000000000e+00  0.0000000000000000e+00  0.0000000000000000e+00  0.0000000000000000e+00  0.0000000000000000e+00  0.0000000000000000e+00  0.0000000000000000e+00  0.0000000000000000e+00  0.0000000000000000e+00  0.0000000000000000e+00  0.0000000000000000e+00  0.0000000000000000e+00  0.0000000000000000e+00  0.0000000000000000e+00  0.0000000000000000e+00  0.0000000000000000e+00  0.0000000000000000e+00  0.0000000000000000e+00  0.0000000000000000e+00  0.0000000000000000e+00  0.0000000000000000e+00  0.0000000000000000e+00  3.1821562379387952e-01  3.1854565549224273e-01  3.1812144398425835e-01  3.1819191237659544e-01  3.1836994050373868e-01  3.1830732319627142e-01  3.1848392473833009e-01  3.1849058444947914e-01  3.1794986581653639e-01  3.1778645239663306e-01  3.1767359791658595e-01  3.1766932310645241e-01  3.1766320807493564e-01  3.1739007227031990e-01  3.1697876845418477e-01  3.1683997000234382e-01  3.1683559659130683e-01  3.1664057111499411e-01  3.1675462982979702e-01  3.1686764670624940e-01  3.1730273018112948e-01  3.1738344493124815e-01  3.1713648449418336e-01  3.1695093767277982e-01  3.1625025358986109e-01  3.1563515498579087e-01  3.1580035354752833e-01  3.1618600805169683e-01  3.1624898238076937e-01  3.1677515387755401e-01  3.1674900271612322e-01  3.1728093450975969e-01  3.1766671305496486e-01  3.1795214901232388e-01  3.1832628298687871e-01  3.1854290240126160e-01  3.1786873496676971e-01  3.1772034354842404e-01  3.1772392488358348e-01  3.1773977060975944e-01  3.1787045473236974e-01  3.1773072580152284e-01  3.1741098743097912e-01  3.1784836357282936e-01  3.1804534320681727e-01  3.1828704510357908e-01  3.1763796779517067e-01  3.1694492960072002e-01  3.1734445249350640e-01  3.1735991971349203e-01  3.1835384189459676e-01  3.1875947558949219e-01  3.1862167977156058e-01  3.1837644664883974e-01  3.1847968827244072e-01  3.1886064543896347e-01  3.1849235217939714e-01  3.1786258474126849e-01  3.1782571205630517e-01  3.1774291498266882e-01  3.1776289530666080e-01  3.1761467690978479e-01  3.3245881516080628e-01  3.3157999117477771e-01  3.3074240622354117e-01  3.3184503084554651e-01  3.3180851703583947e-01  3.3203635721354413e-01  3.3193710608783272e-01  3.3124219627355522e-01  3.3026771012130457e-01  3.3052995176793404e-01  3.3237126319588578e-01  3.3299147655051281e-01  3.3152941016134585e-01  3.3091869405920665e-01  3.3068573441158655e-01  3.3221948360596770e-01  3.3251855632318483e-01  3.3068352035011483e-01  3.3079693781244823e-01  3.3132926341818580e-01  3.3015563764351930e-01  3.3112650719397790e-01  3.3125922335678393e-01  3.2991930524122060e-01  3.3147069748880437e-01  3.3492170981485675e-01  3.3515648410779997e-01  3.3802449379819088e-01  3.3839372910561905e-01  3.4071300683758077e-01  3.4103654886665496e-01  3.4108049379244726e-01  3.4551723168510839e-01  3.4466028975189911e-01  3.4767714647459508e-01  3.4177696720748957e-01  3.4870067472081817e-01  3.4246407826708253e-01  3.4747370204494649e-01  3.4132110648338398e-01  3.4454849844819713e-01  3.4033936343897409e-01  3.4205373813810974e-01  3.4670501735301934e-01  3.4374572842110518e-01  3.4624673530850175e-01  3.4225595352246679e-01  3.4398338981692628e-01  3.3995227254793098e-01  3.4002280466769597e-01  3.4056984399807316e-01  3.4360129383493476e-01  3.3951784268145463e-01  3.3955544851339975e-01  3.4441610094458142e-01  3.3970470928238289e-01  3.4237688065168653e-01  3.3875397213653480e-01  3.4057983109220985e-01  3.4331798756991216e-01  3.4827232937387081e-01  3.4596968158609492e-01  3.4089942008209839e-01  3.4121559067408930e-01  3.4712112629126091e-01  3.4137668480623912e-01  3.4579772679054727e-01  3.3917172227584003e-01  3.4109981402794737e-01  3.4685950713734592e-01  3.4180176994231148e-01  3.3767655757129339e-01  3.4610737978812389e-01  3.4089091411774736e-01  3.3791851830314262e-01  3.4927580065032282e-01  3.3815230286522363e-01  3.3641537995200788e-01  3.3480111439016413e-01  3.3742528978019382e-01  3.3605267932384358e-01  3.3845746521662656e-01  3.4845325211155459e-01  3.3500034311626259e-01  3.3752777303493825e-01  3.3751357888829403e-01  3.3650761645447613e-01  3.3440841447301689e-01  3.3762646905557070e-01  3.3650362797372291e-01  3.3807471784744936e-01  3.3564267831152433e-01  3.3584189316636387e-01  3.3822717048890216e-01  3.3419555012013208e-01  3.3576183894018530e-01  3.3461616806065175e-01  3.3679472620705864e-01  3.3812381015584947e-01  3.3552806200133689e-01  3.3770145515092265e-01  3.3547339376660856e-01  3.3724560937793407e-01  3.3540478377701499e-01  3.3517237927537558e-01  3.3673125839937196e-01  3.3391378815846839e-01  3.3937264520077942e-01  3.3687754558826299e-01  3.3669097368384132e-01  3.3454405379785740e-01  3.3584359706979489e-01  3.3374382194294155e-01  3.3520432237251707e-01  3.3903603206163491e-01  3.3386702752940628e-01  3.3318811355545769e-01  3.3467896883371490e-01  3.5075543455131325e-01  3.3169517518680069e-01  3.3632939798263400e-01  3.5094761350025966e-01  3.4217584326428629e-01  3.3753743084445464e-01  3.3557809464782462e-01  3.3796109959101400e-01  3.3773238877722861e-01  3.3514578789894528e-01  3.3557641605293081e-01  3.5031053573583631e-01  3.3417104631102651e-01  3.3200406143947153e-01  3.3616955960565381e-01  3.3431950300670621e-01  3.3198394169356343e-01  3.4957685579672737e-01  3.3301743255087501e-01  3.3245634038992916e-01  3.3200011591163275e-01  3.3099417858858993e-01  3.3126951320660974e-01  3.3165138894642748e-01  3.3493069522523028e-01  3.3109812485511581e-01  3.3791823107562008e-01  3.3121890534906517e-01  3.3451524798615595e-01  3.3402317933010578e-01  3.3203892738513857e-01  3.3122311389633263e-01  3.3493837182225972e-01  3.3098707699097463e-01  3.3042991176633124e-01  3.3083460233516077e-01  3.3706489584370741e-01  3.3532093147122266e-01  3.3188640712551731e-01  3.3234159642494210e-01  3.3380791259715720e-01  3.3100702216680178e-01  3.3432239321980356e-01  3.3153389669154626e-01  3.3139073585790707e-01  3.4744767020048706e-01  3.3535812143202914e-01  3.3007070386402204e-01  3.3513612947953147e-01  3.3417069317684339e-01  3.3166579964277632e-01  3.2969487517882634e-01  3.3254189692259095e-01  3.3173523922324050e-01  3.4897488767887047e-01  3.3794972528120421e-01  3.3108822899909585e-01  3.3110675977837412e-01  3.3074724325298588e-01  3.2957540168786037e-01  3.3489985244788151e-01  3.4811718601309644e-01  3.5198679783579134e-01  3.3188797226930727e-01  3.3321833519058203e-01  3.3318382729306711e-01  3.3283734988954378e-01  3.3903156772484228e-01  3.3056657808916295e-01  3.5022329693843490e-01  3.3786846803352755e-01  3.3319525837634967e-01  3.2957175085819079e-01  3.5259660704931239e-01  3.3435403805600344e-01  3.3479486876365511e-01  3.3367366425395228e-01  3.3300200392397367e-01  3.3066235292911517e-01  3.3319386926769295e-01  3.3280798682808027e-01  3.3255573107531511e-01  3.3002224713904904e-01  3.2951030556071592e-01  3.3631380911377073e-01  3.3675287950686916e-01  3.3413486937750597e-01  3.3081483964559549e-01  3.3347318917635638e-01  3.2876594270019982e-01  3.3896467222639226e-01  3.3256790964984090e-01  3.3465577779437594e-01  3.3451916559657741e-01  3.4801229262481342e-01  3.3661347595462010e-01  3.3115224816767730e-01  3.3403653914215214e-01  3.3190628796884203e-01  3.2832014014877559e-01  3.5192615131589094e-01  3.3568928617742844e-01  3.3375049804991896e-01  3.2843127911184711e-01  3.5089499724271672e-01  3.3314269527973955e-01  3.3288160380969467e-01  3.3688640930620622e-01  3.3265645831897706e-01  3.3825089279965964e-01  3.3765753900483203e-01  3.3286780516827802e-01  3.3540797227662600e-01  3.3335743601917689e-01  3.3794941326197658e-01  3.3925087086464278e-01  3.3366885416789982e-01  3.3296576313126192e-01  3.3723486512273482e-01  3.3464784766715433e-01  3.3815670794819014e-01  3.3291295779966462e-01  3.3826077287215378e-01  3.3468061857487713e-01  3.2990948637381584e-01  3.3419183056505591e-01  3.3723714279578326e-01  3.3772863358159305e-01  3.5057078266043440e-01  3.3691973429799077e-01  3.4037699012890144e-01  3.3866826299208058e-01  3.3771875403257540e-01  3.3860418938026388e-01  3.3978697257748858e-01  3.3982293685761211e-01  3.3844220843261785e-01  3.3168463751685945e-01  2.9374069690267296e-01  2.9461889670482494e-01  2.8652184241272100e-01  2.8495078264536633e-01  2.8692453113491034e-01  2.8892926757844095e-01  2.9027854369208933e-01  2.8395307043452789e-01  2.9190054640577401e-01  2.8575814521258008e-01  2.8980396075968695e-01  2.8847217549172294e-01  2.9310737966274619e-01  2.9041802332537325e-01  2.8714247357228667e-01  1.2350948662593180e-02  1.4654561768484627e-02  2.9067925696589603e-01  2.9094928972891876e-01  1.4346967567473468e-02  1.8060654700540548e-02  1.5783013148881357e-02  2.9140383956810950e-01  1.4708333408997933e-02  1.7465993767989595e-02  2.8714245220879081e-01  2.8275197243792344e-01  2.0720164758272229e-02  2.8535036811275316e-01  1.9411030595085324e-02  2.4137374330392234e-02  2.8916594263800044e-01  2.8381616671178161e-01  2.8850946097917185e-01  2.9184303389938937e-02  2.8231842103247598e-02  3.0412330734338317e-02  3.0946966703636961e-02  2.7481458246406987e-01  3.0841746444516878e-02  2.9479792648939449e-02  3.2511473297836435e-02  3.8126499497058562e-02  3.8029377370342891e-02  2.5539383050222839e-02  6.3373297347442464e-03  6.0640773576082774e-03  8.5650148276963656e-03  8.4063545559512863e-03  3.9051570461158494e-02  4.3789803129828234e-02  5.7123362937322991e-03  6.4778731821964674e-03  6.6958259361830415e-03  8.0357982652145346e-03  2.7063127480070170e-01  2.2761631876018740e-01  2.1938576510142685e-01  2.3047063373310281e-01  1.7670755383865949e-01  1.6427014588110470e-01  1.2550977106722858e-01  2.0178064861017819e-01  1.5336653070785997e-01  1.7631448180694673e-01  1.3421121906010919e-01  1.2780349584408021e-01  1.5501718292118233e-01  1.0402279356183020e-01  1.2080970609180530e-01  1.6574614283563374e-01  1.4066275574900100e-01  1.7967017443083372e-01  1.4426098266987750e-01  1.0793578116762438e-01  1.1467760424773850e-01  1.5800354719780171e-01  1.2181015830293661e-01  1.5772927307748805e-01  1.2351141202834698e-01  1.6051988284828259e-01  1.2132972480174928e-01  9.2314890311200729e-02  1.5683477676571911e-01  1.1579069144964894e-01  1.4341501491025108e-01  1.0596141096685191e-01  1.3076446468408423e-01  8.2880367837113569e-02  8.8878282570096404e-02  7.2809421495938095e-02  1.7217798310871482e-01  1.6217538381818272e-01  1.1660728825463591e-01  1.4003056539259273e-01  2.1881752642538976e-01  1.9786010960948650e-01  2.0592398196870790e-01  1.8874111233235319e-01  9.8648873362289932e-02  1.1980912051644141e-01  1.6450014056378306e-01  1.4118805696425160e-01  1.8912790392498471e-01  1.6411822970418077e-01  1.1121766443739545e-01  1.2864741816074540e-01  1.8379391714623378e-01  1.5455614187870903e-01  1.0387956173493956e-01  1.1886102928403969e-01  1.6476583338855028e-01  1.2927200718378132e-01  1.7116740788883336e-01  1.4061690745512748e-01  1.8048862564264229e-01  1.3989914137532358e-01  1.7493974215844157e-01  1.3640923837687116e-01  1.7125461462570041e-01  1.2717370895825189e-01  1.5480731030390013e-01  1.1511088281759788e-01  1.3787190165821511e-01  1.0065349895975324e-01  1.1890998563126953e-01  8.1421999724210575e-02  6.9368212403649293e-02  1.0241312412917306e-01  1.6362967620714197e-01  1.3460927725588301e-01  9.8336133179157209e-02  1.1100648702641198e-01  1.6078637782337318e-01  1.2327951008717633e-01  1.6561885249602940e-01  1.3042224265867164e-01  5.3819017002499470e-02  7.6050621608317479e-02  1.7149968107368330e-01  1.3483161421345113e-01  1.8143630902566815e-01  1.3761074169530110e-01  1.8417700912826987e-01  1.3853351910869507e-01  1.8282649738493750e-01  1.3515342830937677e-01  1.7006604881582560e-01  1.2754787235593470e-01  1.6557497561499834e-01  1.1936753037202827e-01  1.5197006915640046e-01  1.0792437085394017e-01  1.3153318473340975e-01  9.3269520079920787e-02  1.1279711389740013e-01  7.7426521226764369e-02  9.3130476707354859e-02  1.2990918575034682e-01  1.0607098571520844e-01  7.4085029627176502e-02  8.3228700861926908e-02  1.1525756032326998e-01  8.8544301364663916e-02  1.1940382980888357e-01  8.9745521991173832e-02  1.1882736984696990e-01  8.7350613965332433e-02  1.1396981543710498e-01  6.0897059345180291e-02  1.5456745830865642e-01  8.2656653201235442e-02  1.0636871811452465e-01  1.4409034295673387e-01  1.3081730878820086e-01  9.4643651143362512e-02  1.7441490132592774e-01  9.2751822101886552e-02  1.1700303546025788e-01  1.5866160962909592e-01  1.4053345171252477e-01  9.9735519531226127e-02  1.2096096003476332e-01  1.6386776019713181e-01  1.4186543809265828e-01  1.9078731594256748e-01  1.6199540649681268e-01  1.2067811909359245e-01  1.4382992347883400e-01  1.0013498037430088e-01  1.1603518272188483e-01  1.5551979762130733e-01  1.2913885056605862e-01  1.6768093287189020e-01  1.4092340370170031e-01  1.0536320909326874e-01  1.1426200691768473e-01  1.4945666120619769e-01  1.2005863937867854e-01  1.5417637985331412e-01  1.2312605565606877e-01  9.2958364967357043e-02  9.3700055831020715e-02  1.2269181538539499e-01  6.8194437681520614e-02  9.1539892405321718e-02  1.1852290605348956e-01  8.3158596488200745e-02  1.5493873927978105e-01  1.4703958846692841e-01  1.1045904473890714e-01  1.4278221562866650e-01  1.8844315586426572e-01  1.9780130033775412e-01  1.9364935976453648e-01  9.7775353100724771e-02  4.4137645965508156e-02  7.3887272122863654e-02  6.2388894724158608e-02  5.5567882714496898e-02  2.1019780690973239e-01  9.6975519845401315e-02  9.9138032708859680e-02  1.2584781763319905e-01  7.6457531073750168e-02  2.1075475120135836e-01  1.9343695284128584e-01  9.2672290769464372e-02  1.7198554015461440e-01  1.4877862899711625e-01  5.9669793344434452e-02  8.1959755643587595e-02  5.9470573270410200e-02  2.1010589484622486e-01  2.3778594113989149e-01  2.2911490665212947e-01  8.0127798237852307e-02  1.0021251215388421e-01  6.6553110291897435e-02  4.5539689798471290e-02  4.6964496681633695e-02  6.6662262956149299e-02  2.9834191213062567e-02  3.2057673997336091e-02  6.3749890674987278e-02  6.1538697523710065e-02  7.9684401307230202e-02  2.9503605105125130e-02  4.4685551665984272e-02  5.5537225103964104e-02  6.1818208980180971e-02  3.9970914527305730e-02  4.3211153956886454e-02  4.3278103263712508e-02  2.0276083477891102e-01  2.1022545994161171e-01  2.0592960142041467e-01  2.2013005647461886e-01  2.1417964135186379e-01  2.1091815108958648e-01  2.3159985039580452e-01  9.1149767885432859e-02  8.1140801471937071e-02  2.2864048446826007e-01  4.7355498150230199e-02  8.9687655704889291e-02  2.2234921295135446e-01  2.1925984730538386e-01  4.1447381576275123e-02  2.5638853371521154e-02  2.2263133615709457e-01  2.4833830292015455e-01  2.3914627186470500e-01  2.6867162274001427e-01  2.2502593275851773e-01  2.6280158129224002e-01  4.5478324910476542e-02  3.3397617503775380e-02  2.3208598702978356e-01  8.3310947695522747e-02  8.3069802713308924e-02  2.0346144085072154e-01  7.8478461344131015e-02  4.8563933887796153e-02  5.2178050713612985e-02  4.1722258537905871e-02  2.8305242888472959e-01  2.4962487743715822e-01  2.4868866742976853e-01  2.4451956560818486e-01  2.0571550382389461e-01  2.4866082252754751e-01  2.0449067252741412e-01  2.1051233411032452e-01  2.3047986302734713e-01  2.1061067311098267e-01  2.3863720739361263e-01  2.1977414379280033e-01  2.0703047586506665e-01  2.2278023867349703e-01  1.9143471658982861e-01  2.3459020179875947e-01  2.8401636697198807e-01  2.7422813312883004e-01  2.3103956397638353e-01  2.1564493427734402e-01  2.5405092143187746e-01  2.4280287689450250e-01  2.8733183937705253e-01  1.7916330547918961e-02  2.8132709032630565e-01  2.8293056271068673e-01  2.3906062378561112e-02  2.4150225031369726e-01  1.9288617949498635e-01  2.3194903233247025e-01  2.4106203818938677e-02  1.7400409878818723e-01  2.3047917852371966e-02  2.6900155364214397e-02  4.4185804713344205e-02  2.3866057923412880e-02  4.3056553749793031e-02  2.8904556835907419e-01  2.5491593873822588e-01  2.5441019629616479e-01  2.4806320315788330e-01  2.1506760591009857e-01  2.1720234516114384e-01  2.7204393660842907e-01  2.3298854320406207e-01  2.1289497933370038e-01  1.4895920971640912e-02  1.6093238501551763e-01  2