<?xml version="1.0"?>
<VTKFile type="UnstructuredGrid"  version="0.1"  >
<UnstructuredGrid>
<Piece  NumberOfPoints="1256" NumberOfCells="2414">
<Points>
<DataArray  type="Float64"  NumberOfComponents="3"  format="ascii">0 0 0  0 1 0  1 1 0  1 0 0  1.1 -0.1 0  -0.1 -0.1 0  1.1 1.1 0  -0.1 1.1 0  0.5011983721999269 0.501464108591233 0  0.5958971194554213 0.7057007268997372 0  0 0.9499999999997918 0  0 0.8999999999995836 0  0 0.8499999999996529 0  0 0.7999999999999998 0  0 0.7500000000003466 0  0 0.7000000000006934 0  0 0.6500000000010401 0  0 0.6000000000013869 0  0 0.5500000000017335 0  0 0.5000000000020587 0  0 0.4500000000018723 0  0 0.4000000000016644 0  0 0.3500000000014564 0  0 0.3000000000012483 0  0 0.2500000000010403 0  0 0.2000000000008322 0  0 0.1500000000006241 0  0 0.100000000000416 0  0 0.05000000000020799 0  0.04999999999989965 0 0  0.09999999999981467 0 0  0.1499999999997036 0 0  0.1999999999995579 0 0  0.2499999999994121 0 0  0.2999999999992664 0 0  0.3499999999991206 0 0  0.3999999999989749 0 0  0.4499999999988292 0 0  0.4999999999986943 0 0  0.5499999999988151 0 0  0.5999999999989468 0 0  0.6499999999990784 0 0  0.69999999999921 0 0  0.7499999999993417 0 0  0.7999999999994734 0 0  0.8499999999996051 0 0  0.8999999999997368 0 0  0.9499999999998684 0 0  1 0.04999999999989965 0  1 0.09999999999981467 0  1 0.1499999999997036 0  1 0.1999999999995579 0  1 0.2499999999994121 0  1 0.2999999999992664 0  1 0.3499999999991206 0  1 0.3999999999989749 0  1 0.4499999999988292 0  1 0.4999999999986943 0  1 0.5499999999988151 0  1 0.5999999999989468 0  1 0.6499999999990784 0  1 0.69999999999921 0  1 0.7499999999993417 0  1 0.7999999999994734 0  1 0.8499999999996051 0  1 0.8999999999997368 0  1 0.9499999999998684 0  0.9499999999997918 1 0  0.8999999999995836 1 0  0.8499999999996529 1 0  0.7999999999999998 1 0  0.7500000000003466 1 0  0.7000000000006934 1 0  0.6500000000010401 1 0  0.6000000000013869 1 0  0.5500000000017335 1 0  0.5000000000020587 1 0  0.4500000000018723 1 0  0.4000000000016644 1 0  0.3500000000014564 1 0  0.3000000000012483 1 0  0.2500000000010403 1 0  0.2000000000008322 1 0  0.1500000000006241 1 0  0.100000000000416 1 0  0.05000000000020799 1 0  -0.1 1.05000000000004 0  -0.1 1.000000000000079 0  -0.1 0.9500000000001624 0  -0.1 0.9000000000003032 0  -0.1 0.850000000000444 0  -0.1 0.8000000000005848 0  -0.1 0.7500000000007256 0  -0.1 0.7000000000008665 0  -0.1 0.6500000000010508 0  -0.1 0.6000000000012352 0  -0.1 0.5500000000014196 0  -0.1 0.500000000001539 0  -0.1 0.4500000000014195 0  -0.1 0.4000000000013 0  -0.1 0.3500000000011588 0  -0.1 0.3000000000010178 0  -0.1 0.2500000000008986 0  -0.1 0.2000000000007579 0  -0.1 0.1500000000006174 0  -0.1 0.1000000000005272 0  -0.1 0.05000000000040083 0  -0.1 2.671196597248127e-13 0  -0.1 -0.0499999999998666 0  -0.0500000000000906 -0.1 0  -1.730560139634463e-13 -0.1 0  0.04999999999975802 -0.1 0  0.09999999999961506 -0.1 0  0.1499999999994613 -0.1 0  0.199999999999302 -0.1 0  0.2499999999991446 -0.1 0  0.2999999999990088 -0.1 0  0.3499999999988296 -0.1 0  0.3999999999986936 -0.1 0  0.4499999999985143 -0.1 0  0.4999999999984002 -0.1 0  0.5499999999985247 -0.1 0  0.5999999999986493 -0.1 0  0.6499999999987955 -0.1 0  0.6999999999989417 -0.1 0  0.7499999999990659 -0.1 0  0.7999999999992116 -0.1 0  0.8499999999993573 -0.1 0  0.8999999999994526 -0.1 0  0.949999999999584 -0.1 0  0.9999999999997226 -0.1 0  1.049999999999861 -0.1 0  1.1 -0.0500000000000906 0  1.1 -1.730560139634463e-13 0  1.1 0.04999999999975802 0  1.1 0.09999999999961506 0  1.1 0.1499999999994613 0  1.1 0.199999999999302 0  1.1 0.2499999999991446 0  1.1 0.2999999999990088 0  1.1 0.3499999999988296 0  1.1 0.3999999999986936 0  1.1 0.4499999999985143 0  1.1 0.4999999999984002 0  1.1 0.5499999999985247 0  1.1 0.5999999999986493 0  1.1 0.6499999999987955 0  1.1 0.6999999999989417 0  1.1 0.7499999999990659 0  1.1 0.7999999999992116 0  1.1 0.8499999999993573 0  1.1 0.8999999999994526 0  1.1 0.949999999999584 0  1.1 0.9999999999997226 0  1.1 1.049999999999861 0  1.05000000000004 1.1 0  1.000000000000079 1.1 0  0.9500000000001624 1.1 0  0.9000000000003032 1.1 0  0.850000000000444 1.1 0  0.8000000000005848 1.1 0  0.7500000000007256 1.1 0  0.7000000000008665 1.1 0  0.6500000000010508 1.1 0  0.6000000000012352 1.1 0  0.5500000000014196 1.1 0  0.500000000001539 1.1 0  0.4500000000014195 1.1 0  0.4000000000013 1.1 0  0.3500000000011588 1.1 0  0.3000000000010178 1.1 0  0.2500000000008986 1.1 0  0.2000000000007579 1.1 0  0.1500000000006174 1.1 0  0.1000000000005272 1.1 0  0.05000000000040083 1.1 0  2.671196597248127e-13 1.1 0  -0.0499999999998666 1.1 0  0.620403742242663 0.7001037429083942 0  0.6440315305236726 0.6915320452240554 0  0.6662320685847634 0.6797576935307479 0  0.6863673430412143 0.6647376314627595 0  0.7035421563089147 0.6464093398626842 0  0.7167287142549382 0.6250610338132492 0  0.726087337057659 0.6017385996900296 0  0.7326242866997775 0.5774734366134927 0  0.7365933509681777 0.5526637115845507 0  0.7384535614458063 0.5276027028489427 0  0.7384799285234774 0.5024724938382723 0  0.736816344264642 0.4773989404779133 0  0.7334580029357012 0.4524977992389189 0  0.7284150702559816 0.4278850334045296 0  0.7217111780417482 0.4036743774262153 0  0.713354712177948 0.3799907605070791 0  0.7033336793720336 0.3569641118727875 0  0.6915665419835406 0.3347876948845412 0  0.6777363015707849 0.3138439266696014 0  0.6617861845388202 0.2944757472013811 0  0.6436846302524372 0.2771372085946741 0  0.6231500900286274 0.2627600551017246 0  0.6006705482210374 0.2516948621602734 0  0.5766394637983024 0.2446755489048937 0  0.5517905034944892 0.2415220353705049 0  0.5267416685489988 0.2417187229032891 0  0.5018686007612845 0.2447102448990758 0  0.4773643696746284 0.2499749225883063 0  0.4533741945991923 0.2572151185105577 0  0.4299886030849844 0.2662300583718715 0  0.4072086625086624 0.2766874034604404 0  0.3849830698428188 0.2882738671828685 0  0.3632865216654183 0.3008201091898008 0  0.3422446802273764 0.3144299832673877 0  0.3219000334589467 0.3290573097835442 0  0.3022758115385401 0.3446327022084595 0  0.2834390843170301 0.361144264435463 0  0.2658664678887466 0.3789710251687937 0  0.2494474019734196 0.3978678650030813 0  0.2343397665842871 0.4178133527071152 0  0.2207156342645193 0.4387915244937173 0  0.2090253980436141 0.4608694997171536 0  0.2010391902993207 0.4844682219938962 0  0.1994914358726344 0.509262241112591 0  0.2053594881284564 0.5334410633262691 0  0.2170057139441793 0.5555395501899065 0  0.2318877094347138 0.5756456210713424 0  0.2489287448975123 0.5939805286502055 0  0.2674416076421141 0.6108698010819472 0  0.2871808623054447 0.6263281290259015 0  0.3079320127580764 0.6404290749699618 0  0.3294991923230969 0.653263557649081 0  0.35178042511868 0.6648286319836113 0  0.3747006397506534 0.6750825187967942 0  0.3981393510877432 0.6841044514145141 0  0.4220091900001028 0.6919307011415236 0  0.4462638270439386 0.6984840171662898 0  0.4708526170126818 0.7036576153910875 0  0.4957047135448924 0.7074007654618913 0  0.5207401038720186 0.709639797159384 0  0.5458689873617636 0.7102325755453118 0  0.5709748507188211 0.7089873627323778 0  0.2729532717335436 0.5816380224787512 0  0.2741396789036985 0.4015486193315038 0  0.6936628227497347 0.6254893211925904 0  0.7158228167056367 0.5385794635049644 0  0.6042068354073706 0.6817305482405071 0  0.3247361776303879 0.353249791947599 0  0.38495996207891 0.3133836459147977 0  0.4495465869155905 0.2820351979931637 0  0.5399310390466874 0.2625526807424857 0  0.6508577566941952 0.3150510372233924 0  0.3315416541836838 0.6306469732394913 0  0.3928602045448977 0.6588380944582634 0  0.7148184890605818 0.4677256962207896 0  0.6991385099745425 0.3983367336762142 0  0.2339563261112644 0.4600657745446308 0  0.5340471646238173 0.6886475787166342 0  0.4622174894666592 0.6806060803201578 0  0.5997114762018552 0.276797135140691 0  0.2317598454801849 0.5335454249434837 0  0.6787437827505712 0.3577214540485617 0  0.4937436479686668 0.2665727177319545 0  0.6465615882777076 0.6675114560952085 0  0.7106268191094207 0.5834815546537542 0  0.220557272572901 0.4989181255450289 0  0.4064272379362199 0.3010045686908634 0  0.405290353930505 0.3257931458351382 0  0.3850274330467909 0.3385166276740415 0  0.405950157391413 0.350972591073501 0  0.3838380283374612 0.364788720101352 0  0.4035999728467213 0.3758523721224232 0  0.4315271092524935 0.3649990053217547 0  0.3829331125552877 0.3928916222375098 0  0.4142957096299426 0.408467460193188 0  0.3796521165486747 0.4288387310634457 0  0.4544226697404191 0.4007741107147293 0  0.4736998584968878 0.3554741930726135 0  0.4979225585811527 0.3979752212959674 0  0.5199691419503162 0.3559937935652766 0  0.5416493640249262 0.3971258521696552 0  0.5615174866448671 0.3564824155538289 0  0.583528094453332 0.3970960273586357 0  0.3569245102500037 0.4083529488490789 0  0.3456139525594232 0.4411183357657629 0  0.3766783497344022 0.4669764138229688 0  0.3428664535987843 0.4826744132287203 0  0.3727540570405376 0.5048070827283795 0  0.3386706267909971 0.5200458484158405 0  0.3678379631233537 0.5415574301685812 0  0.3100950546924544 0.498498728171462 0  0.337402121305316 0.556131799026611 0  0.3617591802990081 0.5743244204540583 0  0.393134380384757 0.5666795229315239 0  0.5991744699409823 0.3614812228008049 0  0.622446015221785 0.3914261295597504 0  0.6046768479302801 0.4272108370430014 0  0.639585763816092 0.4219320181170396 0  0.6295159681081012 0.4585101186961523 0  0.5413128815803167 0.3323034247106115 0  0.3950751506265029 0.5940885346695542 0  0.4224943685627747 0.5888972904688622 0  0.5844295723773961 0.4650061071396288 0  0.6094429762885227 0.4961965415119351 0  0.6441454840860549 0.4885918922173091 0  0.6412431026856998 0.5278330952949861 0  0.5938330439458838 0.5342915723679484 0  0.6234192913422537 0.56918671611728 0  0.5795497089618091 0.5727095771164086 0  0.6084618580817536 0.6087556660775205 0  0.5660276534808683 0.6150788006602427 0  0.539245340092484
[...]
<PointData  Scalars="u"> 
<DataArray  type="Float64"  Name="u"  format="ascii">0.0000000000000000e+00  0.0000000000000000e+00  0.0000000000000000e+00  0.0000000000000000e+00  0.0000000000000000e+00  0.0000000000000000e+00  0.0000000000000000e+00  0.0000000000000000e+00  3.4446180643432894e-01  3.1040725078725284e-01  0.0000000000000000e+00  0.0000000000000000e+00  0.0000000000000000e+00  0.0000000000000000e+00  0.0000000000000000e+00  0.0000000000000000e+00  0.0000000000000000e+00  0.0000000000000000e+00  0.0000000000000000e+00  0.0000000000000000e+00  0.0000000000000000e+00  0.0000000000000000e+00  0.0000000000000000e+00  0.0000000000000000e+00  0.0000000000000000e+00  0.0000000000000000e+00  0.0000000000000000e+00  0.0000000000000000e+00  0.0000000000000000e+00  0.0000000000000000e+00  0.0000000000000000e+00  0.0000000000000000e+00  0.0000000000000000e+00  0.0000000000000000e+00  0.0000000000000000e+00  0.0000000000000000e+00  0.0000000000000000e+00  0.0000000000000000e+00  0.0000000000000000e+00  0.0000000000000000e+00  0.0000000000000000e+00  0.0000000000000000e+00  0.0000000000000000e+00  0.0000000000000000e+00  0.0000000000000000e+00  0.0000000000000000e+00  0.0000000000000000e+00  0.0000000000000000e+00  0.0000000000000000e+00  0.0000000000000000e+00  0.0000000000000000e+00  0.0000000000000000e+00  0.0000000000000000e+00  0.0000000000000000e+00  0.0000000000000000e+00  0.0000000000000000e+00  0.0000000000000000e+00  0.0000000000000000e+00  0.0000000000000000e+00  0.0000000000000000e+00  0.0000000000000000e+00  0.0000000000000000e+00  0.0000000000000000e+00  0.0000000000000000e+00  0.0000000000000000e+00  0.0000000000000000e+00  0.0000000000000000e+00  0.0000000000000000e+00  0.0000000000000000e+00  0.0000000000000000e+00  0.0000000000000000e+00  0.0000000000000000e+00  0.0000000000000000e+00  0.0000000000000000e+00  0.0000000000000000e+00  0.0000000000000000e+00  0.0000000000000000e+00  0.0000000000000000e+00  0.0000000000000000e+00  0.0000000000000000e+00  0.0000000000000000e+00  0.0000000000000000e+00  0.0000000000000000e+00  0.0000000000000000e+00  0.0000000000000000e+00  0.0000000000000000e+00  0.0000000000000000e+00  0.0000000000000000e+00  0.0000000000000000e+00  0.0000000000000000e+00  0.0000000000000000e+00  0.0000000000000000e+00  0.0000000000000000e+00  0.0000000000000000e+00  0.0000000000000000e+00  0.0000000000000000e+00  0.0000000000000000e+00  0.0000000000000000e+00  0.0000000000000000e+00  0.0000000000000000e+00  0.0000000000000000e+00  0.0000000000000000e+00  0.0000000000000000e+00  0.0000000000000000e+00  0.0000000000000000e+00  0.0000000000000000e+00  0.0000000000000000e+00  0.0000000000000000e+00  0.0000000000000000e+00  0.0000000000000000e+00  0.0000000000000000e+00  0.0000000000000000e+00  0.0000000000000000e+00  0.0000000000000000e+00  0.0000000000000000e+00  0.0000000000000000e+00  0.0000000000000000e+00  0.0000000000000000e+00  0.0000000000000000e+00  0.0000000000000000e+00  0.0000000000000000e+00  0.0000000000000000e+00  0.0000000000000000e+00  0.0000000000000000e+00  0.0000000000000000e+00  0.0000000000000000e+00  0.0000000000000000e+00  0.0000000000000000e+00  0.0000000000000000e+00  0.0000000000000000e+00  0.0000000000000000e+00  0.0000000000000000e+00  0.0000000000000000e+00  0.0000000000000000e+00  0.0000000000000000e+00  0.0000000000000000e+00  0.0000000000000000e+00  0.0000000000000000e+00  0.0000000000000000e+00  0.0000000000000000e+00  0.0000000000000000e+00  0.0000000000000000e+00  0.0000000000000000e+00  0.0000000000000000e+00  0.0000000000000000e+00  0.0000000000000000e+00  0.0000000000000000e+00  0.0000000000000000e+00  0.0000000000000000e+00  0.0000000000000000e+00  0.0000000000000000e+00  0.0000000000000000e+00  0.0000000000000000e+00  0.0000000000000000e+00  0.0000000000000000e+00  0.0000000000000000e+00  0.0000000000000000e+00  0.0000000000000000e+00  0.0000000000000000e+00  0.0000000000000000e+00  0.0000000000000000e+00  0.0000000000000000e+00  0.0000000000000000e+00  0.0000000000000000e+00  0.0000000000000000e+00  0.0000000000000000e+00  0.0000000000000000e+00  0.0000000000000000e+00  0.0000000000000000e+00  0.0000000000000000e+00  0.0000000000000000e+00  0.0000000000000000e+00  0.0000000000000000e+00  0.0000000000000000e+00  0.0000000000000000e+00  0.0000000000000000e+00  0.0000000000000000e+00  0.0000000000000000e+00  3.0909882550030854e-01  3.0779280592972963e-01  3.0594850530504608e-01  3.0497696946170255e-01  3.0480692918444197e-01  3.0553966061929394e-01  3.0727624348584170e-01  3.0872735110625815e-01  3.0964539435152111e-01  3.1069040248662916e-01  3.1149179256467391e-01  3.1206809102393468e-01  3.1239588853254535e-01  3.1222704639400994e-01  3.1171028326131306e-01  3.1113836387989480e-01  3.1038810567160546e-01  3.0914442361169941e-01  3.0809069714082216e-01  3.0695072607963070e-01  3.0610740968298900e-01  3.0555833340051847e-01  3.0507346797914442e-01  3.0552938542396663e-01  3.0615820266708532e-01  3.0720470761595420e-01  3.0908694232350603e-01  3.1082270456956695e-01  3.1216769528096411e-01  3.1363792717131278e-01  3.1441369857157297e-01  3.1521538227263246e-01  3.1546570551095154e-01  3.1528386180018680e-01  3.1488233758217160e-01  3.1401491198647236e-01  3.1191837015924134e-01  3.1001356798630059e-01  3.0797544962910023e-01  3.0541273495445542e-01  3.0234405272929826e-01  2.9839491317502476e-01  2.9420446394227867e-01  2.9342825888023044e-01  2.9534725011324020e-01  2.9919557131743885e-01  3.0200550477207194e-01  3.0469136592021245e-01  3.0770512849623560e-01  3.1002093775773093e-01  3.1255820442179461e-01  3.1431190436871037e-01  3.1533864156346386e-01  3.1604215442971317e-01  3.1677620085177971e-01  3.1736522958140301e-01  3.1706108584685638e-01  3.1629929706467447e-01  3.1566687590694542e-01  3.1469447504533427e-01  3.1352552101734998e-01  3.1203463331894543e-01  3.2043068500196481e-01  3.2166384661369513e-01  3.1968927056836566e-01  3.2331755646834720e-01  3.2320337210184602e-01  3.2568243614254927e-01  3.2703326117622666e-01  3.2549083726717787e-01  3.2146400275036874e-01  3.2130319735638196e-01  3.2522045479036482e-01  3.2803521014925752e-01  3.2451525843087159e-01  3.2391082753170575e-01  3.1560737915770914e-01  3.2642124621870938e-01  3.2820266724599251e-01  3.2070741945201503e-01  3.1449408701532511e-01  3.2348823123878845e-01  3.2305956343059322e-01  3.2083031195237777e-01  3.2133933630911649e-01  3.1276519147413279e-01  3.2658090896910691e-01  3.2933146995114709e-01  3.2943682599594831e-01  3.3175006015232200e-01  3.3180495242908931e-01  3.3369207701041670e-01  3.3412381516702483e-01  3.3353685802536426e-01  3.3744399697848670e-01  3.3590811064971654e-01  3.3964941407402083e-01  3.3436312736847290e-01  3.4036133763865073e-01  3.3420554310855705e-01  3.3888379608762315e-01  3.3259567345572083e-01  3.3595515526773839e-01  3.3204853026259668e-01  3.3245707639021344e-01  3.3714394308933776e-01  3.3321874777816579e-01  3.3643253466949730e-01  3.3152091366952507e-01  3.3449401475895474e-01  3.2797362959393639e-01  3.2996256272426594e-01  3.3192532447170470e-01  3.3524108128805252e-01  3.3072983816675783e-01  3.3124238561462777e-01  3.3600506121904034e-01  3.3175174471426300e-01  3.3418502808538575e-01  3.3020080737687924e-01  3.3321480665955805e-01  3.3596014802274515e-01  3.3966143797666576e-01  3.3734544107881353e-01  3.3267229866027853e-01  3.3243517515531712e-01  3.3825458613454829e-01  3.3208187986691357e-01  3.3701353694819342e-01  3.2987870728468577e-01  3.3297126318168768e-01  3.3864096224380202e-01  3.3447248682412239e-01  3.2785277099869159e-01  3.3855287142195650e-01  3.3450437802479938e-01  3.3175405200567004e-01  3.4004218298947686e-01  3.2846110286000774e-01  3.2784375964342122e-01  3.2910312017545873e-01  3.2976467264190201e-01  3.2817587400786552e-01  3.3243234996557808e-01  3.4010917346065050e-01  3.2892041412125195e-01  3.2900293670856207e-01  3.2846254167535499e-01  3.2592165160784337e-01  3.2493086014299022e-01  3.2908109197035396e-01  3.2859637941464404e-01  3.2865700531820707e-01  3.2566950641538189e-01  3.2829973486076930e-01  3.3051524589672143e-01  3.2696119822772562e-01  3.2607110692508950e-01  3.2436134740758027e-01  3.3069351856084150e-01  3.3044878350823337e-01  3.2742462970259850e-01  3.3094711102432589e-01  3.2842658760967669e-01  3.2813699883248570e-01  3.2631752090759841e-01  3.2605314377557293e-01  3.2816309730257204e-01  3.2447952616734710e-01  3.2827930467292743e-01  3.2388333592574031e-01  3.2320195534381130e-01  3.2023737497718630e-01  3.2399516111337817e-01  3.1882807513679062e-01  3.2157034499963966e-01  3.2766247570519647e-01  3.2036609419167528e-01  3.2103918171800672e-01  3.2556535366017447e-01  3.4201487778187478e-01  3.2215749653349113e-01  3.2876745313109673e-01  3.4232527015885833e-01  3.3560454975488541e-01  3.3202391463149494e-01  3.3039736228443178e-01  3.3080119147101539e-01  3.3046980853767771e-01  3.2737323919944866e-01  3.2348171642651258e-01  3.4155271199617249e-01  3.2945908883502739e-01  3.2687216853948892e-01  3.3100338744818186e-01  3.2932577327488455e-01  3.2465345083527514e-01  3.4091735845304261e-01  3.2741898469940472e-01  3.2620935861245831e-01  3.2694172515610287e-01  3.2369654445944712e-01  3.2443855230836072e-01  3.2314902819786334e-01  3.2546015246009380e-01  3.2425808964899466e-01  3.3153152791500845e-01  3.2339857577062581e-01  3.2609059604346285e-01  3.2497206741513884e-01  3.2641180304962586e-01  3.2469149174068473e-01  3.2828270188432795e-01  3.2360395071126236e-01  3.2412577921581331e-01  3.1704721687121795e-01  3.2806908418362257e-01  3.2929737757482169e-01  3.2418488344700896e-01  3.1763190089925869e-01  3.2490984299396625e-01  3.2252890376369275e-01  3.2615619098503779e-01  3.2628116156894182e-01  3.2215011406364102e-01  3.3968295593985964e-01  3.2586531144632735e-01  3.2210665672652716e-01  3.2866809937699015e-01  3.2327746408249514e-01  3.2213464360944333e-01  3.2010822113201254e-01  3.2350474439393956e-01  3.2216742539520982e-01  3.4032843847217209e-01  3.3215388951578323e-01  3.2053234272450232e-01  3.2111962562983981e-01  3.1981442528389692e-01  3.1952472388625242e-01  3.2691747213840605e-01  3.3905665850980965e-01  3.4311669310094151e-01  3.2344935098245664e-01  3.2289934736601367e-01  3.2865531851199475e-01  3.2515986309993744e-01  3.3115865742411504e-01  3.1714895179252550e-01  3.4184134395716315e-01  3.2525393407809300e-01  3.2574792427350746e-01  3.1817103118747064e-01  3.4384269577058080e-01  3.2693337625367147e-01  3.2815832464762945e-01  3.2583739883044716e-01  3.1972354050059559e-01  3.1405455380054526e-01  3.2279132442909547e-01  3.2442181185491487e-01  3.1769073872071713e-01  3.1354787591071032e-01  3.1409528541205373e-01  3.2769886983903240e-01  3.2852120791335948e-01  3.2333127173726017e-01  3.1942893517620413e-01  3.2350761711331200e-01  3.1900556110601114e-01  3.3314169608702759e-01  3.2618442851943857e-01  3.2851640650016406e-01  3.2701814543826885e-01  3.3906009360127481e-01  3.2595164784560682e-01  3.2679800431108319e-01  3.2561344560214273e-01  3.1609014577636618e-01  3.1812875072002339e-01  3.4317159433694544e-01  3.2804921396071007e-01  3.2427716561597819e-01  3.1024284544091502e-01  3.4249495312822420e-01  3.2331077649328382e-01  3.2587555674290214e-01  3.2770879584224011e-01  3.2192890473938551e-01  3.3108655621066985e-01  3.2875706657888076e-01  3.2516406032712442e-01  3.3000557774668871e-01  3.2618314782359975e-01  3.3003121001891716e-01  3.3258969059263038e-01  3.2549168236455489e-01  3.2341905888976313e-01  3.2938194424495026e-01  3.2920377477038665e-01  3.3153954668710500e-01  3.2575468144952757e-01  3.2861136300235422e-01  3.2445643866738788e-01  3.2627241544948338e-01  3.2712383490153735e-01  3.3109062531485256e-01  3.2959449390548162e-01  3.4206872564276375e-01  3.2715078595965819e-01  3.3381404413877691e-01  3.2983978712174367e-01  3.2984588797295494e-01  3.3159642983710874e-01  3.3203328985650027e-01  3.2817838946523464e-01  3.3021466344415457e-01  3.2189925283016907e-01  2.8921816092472791e-01  2.9155658780973159e-01  2.7800068458970539e-01  2.7260125978449740e-01  2.7429841981217601e-01  2.8702841562479087e-01  2.8877166458707848e-01  2.7511212842899119e-01  2.9038354408956951e-01  2.8020972008090994e-01  2.8006075760876759e-01  2.7770134672850705e-01  2.8310949760987564e-01  2.8651929074289878e-01  2.8032382346545598e-01  1.2461652231734221e-02  1.4045448246150576e-02  2.8598565850995028e-01  2.8807058011574094e-01  1.3549867753369530e-02  1.7877955368393979e-02  1.4667833022011061e-02  2.8528698168766664e-01  1.4508627272327001e-02  1.7352960843255719e-02  2.7622809352096417e-01  2.7442326779833398e-01  1.9349163124309090e-02  2.7077818694353767e-01  2.2018277967364601e-02  2.4722674432972828e-02  2.8394360081284775e-01  2.6967963268155393e-01  2.8209552339847627e-01  2.9456705949875536e-02  2.6955036540030196e-02  2.8253335715153274e-02  3.1017279969634944e-02  2.5546935597995424e-01  2.8634591843923033e-02  2.8306581556931384e-02  3.2645143285523502e-02  3.7226586447336736e-02  3.5801729512295315e-02  2.8780121841202745e-02  5.7075122896036437e-03  5.7449726883985995e-03  8.0149347478540908e-03  8.3802485692485666e-03  3.5452824737088606e-02  3.9256775784726569e-02  5.3365727707810513e-03  5.8419873004262090e-03  6.4479738739986660e-03  7.8693388263856405e-03  2.5116298326260222e-01  2.1292685771994904e-01  2.0544554917893418e-01  2.1641703676112581e-01  1.6602211079917017e-01  1.5450686445779738e-01  1.1721388049512813e-01  1.9052568841750417e-01  1.4512757953870514e-01  1.6819459670924164e-01  1.2555072710364024e-01  1.2144650719202582e-01  1.4956160502277011e-01  9.9753786570665026e-02  1.1763516584790906e-01  1.6160091438357080e-01  1.3822433902176018e-01  1.7700186683438887e-01  1.4269691434366502e-01  1.0669006780725601e-01  1.1388043511539887e-01  1.5680101311618888e-01  1.2129582557878719e-01  1.5693097295678854e-01  1.2310134193934563e-01  1.5983878598514245e-01  1.2101341434274901e-01  9.2035898913221587e-02  1.5631051288479716e-01  1.1553929251502421e-01  1.4303814131483739e-01  1.0580451559626862e-01  1.3052059025920948e-01  8.2663468977742585e-02  8.8533154242457016e-02  7.2715639031892529e-02  1.7147257728912191e-01  1.6161791476086665e-01  1.1644644956144393e-01  1.3952941380533981e-01  2.1320727108692109e-01  1.9618353505503844e-01  2.0489551113784377e-01  1.8770079896415842e-01  9.8469668984520475e-02  1.1912452841330440e-01  1.6319845186582924e-01  1.3963625450420306e-01  1.8678870097181782e-01  1.6128829125538791e-01  1.0942563395352850e-01  1.2555077768604148e-01  1.7952895916260778e-01  1.4990548938851184e-01  1.0056967714026087e-01  1.1445512550875914e-01  1.5896047594111526e-01  1.2401647953004261e-01  1.6474074019535892e-01  1.3479289333839375e-01  1.7362689858918640e-01  1.3418928655105722e-01  1.6844597033365130e-01  1.3113046551346175e-01  1.6524575427983482e-01  1.2251651962144972e-01  1.4973695576277751e-01  1.1115906783619135e-01  1.3365078306029282e-01  9.7423074483804661e-02  1.1554342532481580e-01  7.8474599198813624e-02  6.7016915333714108e-02  9.8222424659530322e-02  1.5918864628867227e-01  1.3126568771221239e-01  9.5790143466935374e-02  1.0854104079090328e-01  1.5731865388196853e-01  1.2094585922349435e-01  1.6250041134526813e-01  1.2825097527383642e-01  5.1743074962133817e-02  7.4332627841407595e-02  1.6849399126234949e-01  1.3273641855527341e-01  1.7826211635905462e-01  1.3533471326283186e-01  1.8062812592775726e-01  1.3577588908383981e-01  1.7864329034084506e-01  1.3176498419795785e-01  1.6528107380793350e-01  1.2347617427302569e-01  1.5978891100081760e-01  1.1467864445140845e-01  1.4564789276193676e-01  1.0297804220899889e-01  1.2529644898511602e-01  8.8454671675479046e-02  1.0688399222989946e-01  7.3032772516352498e-02  8.7859372413322867e-02  1.2304285441229090e-01  1.0010830601749154e-01  6.9646384377768530e-02  7.8325952987289602e-02  1.0889448403625247e-01  8.3432821184028158e-02  1.1299164941396826e-01  8.4719478660125053e-02  1.1273378390036856e-01  8.2723458633839869e-02  1.0857859027048317e-01  5.7108860507535858e-02  1.4695839126021606e-01  7.8747081838079311e-02  1.0200023184348850e-01  1.3817117631798567e-01  1.2631284915947244e-01  9.2093821546914298e-02  1.6685926850358682e-01  8.9900462948371493e-02  1.1406166650552464e-01  1.5424482295539638e-01  1.3785982441919611e-01  9.8439991996582751e-02  1.1977499144017306e-01  1.6139504024069132e-01  1.4072825466662622e-01  1.8845503781511327e-01  1.6069698565378027e-01  1.2053387877348316e-01  1.4327346827701651e-01  1.0059662217070862e-01  1.1591049292379227e-01  1.5446031272102220e-01  1.2834711658723119e-01  1.6603210118320122e-01  1.3946052411236948e-01  1.0459194415834536e-01  1.1289351210495070e-01  1.4747753991272411e-01  1.1828599701645257e-01  1.5180803787354669e-01  1.2107562145471799e-01  9.1347873990405781e-02  9.1892086435961834e-02  1.2046518763914248e-01  6.6741886563903313e-02  8.9604442524202646e-02  1.1608278828937924e-01  8.2359247868822497e-02  1.5206663817946528e-01  1.4377794604337371e-01  1.0778772039095935e-01  1.3895994791819929e-01  1.8561562905887138e-01  1.9583173840648452e-01  1.9047960553401505e-01  9.6451278890222605e-02  4.2550596979161144e-02  7.3777486583779806e-02  5.8743748387542344e-02  5.5316004102716879e-02  2.0639717424113910e-01  9.2505104275954361e-02  9.6093719225816721e-02  1.2135599063435829e-01  7.4354515874471575e-02  2.0451046893249186e-01  1.8939691830233202e-01  9.1189819059426899e-02  1.6628450932369354e-01  1.4244100877146326e-01  5.6318986209082031e-02  8.2033281086956136e-02  5.9497276008785308e-02  2.0780085055333677e-01  2.3571588316551237e-01  2.2714364862620701e-01  8.0842921430907724e-02  9.5360182383045264e-02  6.5342459424779425e-02  4.4448048819763490e-02  4.5701767731842681e-02  6.4865583991689096e-02  2.8873285386023153e-02  3.0716401183972633e-02  6.5057002134514028e-02  5.8994258397147982e-02  7.9685276532617130e-02  2.8519014487008259e-02  4.3421537788926441e-02  5.5315292321896768e-02  6.1542611875549422e-02  3.9696834334168693e-02  4.2907982730645146e-02  4.2496294581948188e-02  1.9630706713732129e-01  2.0289476255248823e-01  1.9939251118590931e-01  2.1191172322635574e-01  2.0651556802510496e-01  2.0746603278174108e-01  2.2876956452323124e-01  8.3987730082824452e-02  7.4278501697748633e-02  2.2534923729236203e-01  4.4433609199253363e-02  8.5674952615734684e-02  2.1834960777930962e-01  2.1099274451822955e-01  4.1348053520515210e-02  2.4752101948057686e-02  2.2159040849806930e-01  2.4707764910616981e-01  2.3765142208058135e-01  2.6694087522614812e-01  2.2215523051028355e-01  2.5983515367493193e-01  4.5960369967240025e-02  3.3730100747109269e-02  2.2830329637892857e-01  7.9733074963843978e-02  8.2675385507533741e-02  1.9621853740166414e-01  7.5844130473424795e-02  4.7472719705050688e-02  5.1281918990785616e-02  4.0555532049799961e-02  2.7030662470151479e-01  2.3826198403693552e-01  2.3733241751632944e-01  2.3365738725053811e-01  1.9602059707059491e-01  2.3771342519772568e-01  1.9506855984952415e-01  2.0058761335822992e-01  2.1830239882269778e-01  2.0858936864057639e-01  2.3558450838905043e-01  2.1618514534639474e-01  1.9819071009993464e-01  2.1501191989198928e-01  1.8621970905585308e-01  2.2829359346094805e-01  2.7294570647139704e-01  2.6305042090536840e-01  2.2120660252561478e-01  2.1188666391541661e-01  2.4978240136510710e-01  2.3844871460278735e-01  2.7733564123403975e-01  1.7174345054484143e-02  2.6437434268299365e-01  2.7326327379640042e-01  2.2957856462477725e-02  2.3452403509662412e-01  1.8936466937779381e-01  2.2737816129320695e-01  2.3879535939532466e-02  1.6542602978970147e-01  2.2783848349881307e-02  2.6643202953039333e-02  4.3915321347401379e-02  2.3675953877491680e-02  4.2823965884651378e-02  2.8080655249903852e-01  2.4610885831396714e-01  2.4685496337054363e-01  2.4177638417686276e-01  2.0733697447841901e-01  2.0859042396747948e-01  2.6694851853874441e-01  2.2791945746323708e-01  2.0609635092088188e-01  1.4161173285684978e-02  1.5826874250697784e-01  2