<?xml version="1.0"?>
<VTKFile type="UnstructuredGrid"  version="0.1"  >
<UnstructuredGrid>
<Piece  NumberOfPoints="1256" NumberOfCells="2414">
<Points>
<DataArray  type="Float64"  NumberOfComponents="3"  format="ascii">0 0 0  0 1 0  1 1 0  1 0 0  1.1 -0.1 0  -0.1 -0.1 0  1.1 1.1 0  -0.1 1.1 0  0.5120871733439737 0.5216286492649952 0  0.6068555419356406 0.7324479131460405 0  0 0.9499999999997918 0  0 0.8999999999995836 0  0 0.8499999999996529 0  0 0.7999999999999998 0  0 0.7500000000003466 0  0 0.7000000000006934 0  0 0.6500000000010401 0  0 0.6000000000013869 0  0 0.5500000000017335 0  0 0.5000000000020587 0  0 0.4500000000018723 0  0 0.4000000000016644 0  0 0.3500000000014564 0  0 0.3000000000012483 0  0 0.2500000000010403 0  0 0.2000000000008322 0  0 0.1500000000006241 0  0 0.100000000000416 0  0 0.05000000000020799 0  0.04999999999989965 0 0  0.09999999999981467 0 0  0.1499999999997036 0 0  0.1999999999995579 0 0  0.2499999999994121 0 0  0.2999999999992664 0 0  0.3499999999991206 0 0  0.3999999999989749 0 0  0.4499999999988292 0 0  0.4999999999986943 0 0  0.5499999999988151 0 0  0.5999999999989468 0 0  0.6499999999990784 0 0  0.69999999999921 0 0  0.7499999999993417 0 0  0.7999999999994734 0 0  0.8499999999996051 0 0  0.8999999999997368 0 0  0.9499999999998684 0 0  1 0.04999999999989965 0  1 0.09999999999981467 0  1 0.1499999999997036 0  1 0.1999999999995579 0  1 0.2499999999994121 0  1 0.2999999999992664 0  1 0.3499999999991206 0  1 0.3999999999989749 0  1 0.4499999999988292 0  1 0.4999999999986943 0  1 0.5499999999988151 0  1 0.5999999999989468 0  1 0.6499999999990784 0  1 0.69999999999921 0  1 0.7499999999993417 0  1 0.7999999999994734 0  1 0.8499999999996051 0  1 0.8999999999997368 0  1 0.9499999999998684 0  0.9499999999997918 1 0  0.8999999999995836 1 0  0.8499999999996529 1 0  0.7999999999999998 1 0  0.7500000000003466 1 0  0.7000000000006934 1 0  0.6500000000010401 1 0  0.6000000000013869 1 0  0.5500000000017335 1 0  0.5000000000020587 1 0  0.4500000000018723 1 0  0.4000000000016644 1 0  0.3500000000014564 1 0  0.3000000000012483 1 0  0.2500000000010403 1 0  0.2000000000008322 1 0  0.1500000000006241 1 0  0.100000000000416 1 0  0.05000000000020799 1 0  -0.1 1.05000000000004 0  -0.1 1.000000000000079 0  -0.1 0.9500000000001624 0  -0.1 0.9000000000003032 0  -0.1 0.850000000000444 0  -0.1 0.8000000000005848 0  -0.1 0.7500000000007256 0  -0.1 0.7000000000008665 0  -0.1 0.6500000000010508 0  -0.1 0.6000000000012352 0  -0.1 0.5500000000014196 0  -0.1 0.500000000001539 0  -0.1 0.4500000000014195 0  -0.1 0.4000000000013 0  -0.1 0.3500000000011588 0  -0.1 0.3000000000010178 0  -0.1 0.2500000000008986 0  -0.1 0.2000000000007579 0  -0.1 0.1500000000006174 0  -0.1 0.1000000000005272 0  -0.1 0.05000000000040083 0  -0.1 2.671196597248127e-13 0  -0.1 -0.0499999999998666 0  -0.0500000000000906 -0.1 0  -1.730560139634463e-13 -0.1 0  0.04999999999975802 -0.1 0  0.09999999999961506 -0.1 0  0.1499999999994613 -0.1 0  0.199999999999302 -0.1 0  0.2499999999991446 -0.1 0  0.2999999999990088 -0.1 0  0.3499999999988296 -0.1 0  0.3999999999986936 -0.1 0  0.4499999999985143 -0.1 0  0.4999999999984002 -0.1 0  0.5499999999985247 -0.1 0  0.5999999999986493 -0.1 0  0.6499999999987955 -0.1 0  0.6999999999989417 -0.1 0  0.7499999999990659 -0.1 0  0.7999999999992116 -0.1 0  0.8499999999993573 -0.1 0  0.8999999999994526 -0.1 0  0.949999999999584 -0.1 0  0.9999999999997226 -0.1 0  1.049999999999861 -0.1 0  1.1 -0.0500000000000906 0  1.1 -1.730560139634463e-13 0  1.1 0.04999999999975802 0  1.1 0.09999999999961506 0  1.1 0.1499999999994613 0  1.1 0.199999999999302 0  1.1 0.2499999999991446 0  1.1 0.2999999999990088 0  1.1 0.3499999999988296 0  1.1 0.3999999999986936 0  1.1 0.4499999999985143 0  1.1 0.4999999999984002 0  1.1 0.5499999999985247 0  1.1 0.5999999999986493 0  1.1 0.6499999999987955 0  1.1 0.6999999999989417 0  1.1 0.7499999999990659 0  1.1 0.7999999999992116 0  1.1 0.8499999999993573 0  1.1 0.8999999999994526 0  1.1 0.949999999999584 0  1.1 0.9999999999997226 0  1.1 1.049999999999861 0  1.05000000000004 1.1 0  1.000000000000079 1.1 0  0.9500000000001624 1.1 0  0.9000000000003032 1.1 0  0.850000000000444 1.1 0  0.8000000000005848 1.1 0  0.7500000000007256 1.1 0  0.7000000000008665 1.1 0  0.6500000000010508 1.1 0  0.6000000000012352 1.1 0  0.5500000000014196 1.1 0  0.500000000001539 1.1 0  0.4500000000014195 1.1 0  0.4000000000013 1.1 0  0.3500000000011588 1.1 0  0.3000000000010178 1.1 0  0.2500000000008986 1.1 0  0.2000000000007579 1.1 0  0.1500000000006174 1.1 0  0.1000000000005272 1.1 0  0.05000000000040083 1.1 0  2.671196597248127e-13 1.1 0  -0.0499999999998666 1.1 0  0.6311145331141966 0.7232382703030416 0  0.6540004650280342 0.7113283640267798 0  0.6751569438647996 0.6968179509655511 0  0.6938379608091926 0.679682360964814 0  0.7099742102542864 0.6603587847741431 0  0.7235718201553245 0.639203392323079 0  0.7343830491033305 0.6164060158332128 0  0.7424826265753721 0.5923441136299132 0  0.7481457886786396 0.5675759752540684 0  0.7513576503245355 0.5422726516603122 0  0.752306309166082 0.5167070368909348 0  0.7511431418672837 0.4910987597736564 0  0.7479105151494059 0.465650814321251 0  0.7426370306390396 0.440541893848882 0  0.7353575799423278 0.4159634938946541 0  0.7260400379225268 0.3921869408205105 0  0.7146673664657952 0.3693666448448579 0  0.7012830226245665 0.3478364770082235 0  0.6858161938216909 0.3278456160709348 0  0.6683867132573789 0.3097726183403828 0  0.6492929572577741 0.2939719481309425 0  0.6285980099566948 0.2803879628943254 0  0.6064195103770568 0.2696229745813379 0  0.5832146954182158 0.2616294891553805 0  0.5591783711295639 0.2563590877418143 0  0.534598883830542 0.2540254468625583 0  0.5097881940209001 0.2545581095005658 0  0.4849654513973596 0.2577630580983797 0  0.4605097566570603 0.2633161485697052 0  0.4365539725789039 0.2710251403734952 0  0.413276800400487 0.2806487129532996 0  0.3908017288197664 0.2920942596156428 0  0.3692615581980284 0.3051516118166152 0  0.3487436282575581 0.319680913502124 0  0.3293709227262195 0.3355867568400921 0  0.3112617518207514 0.352765970878275 0  0.2945559599603705 0.371171570017987 0  0.2796481199346531 0.3906014347381364 0  0.2665328631970652 0.411089780566607 0  0.2553863266586867 0.4323685807209372 0  0.2464813653576809 0.4543063395179471 0  0.2403289033865265 0.4766339081465679 0  0.2372898763200658 0.4986941448598373 0  0.2374023028629287 0.5201470247106843 0  0.2398732869510619 0.5416654979643584 0  0.2455907061082371 0.5640177266705017 0  0.2543811501009838 0.5859499386223751 0  0.2658227337349069 0.6071715539760905 0  0.28001722302236 0.6273288650850002 0  0.2963316464133647 0.6462459070855369 0  0.3146781144254193 0.6638076431784357 0  0.3345855870123011 0.6799317198211945 0  0.3558940683096206 0.69450953756988 0  0.3784003359472578 0.707404879667816 0  0.40195394172072 0.7185926114324221 0  0.4263042746247359 0.728033511363549 0  0.4514589463801567 0.7353775686566203 0  0.4771741100034083 0.7405252077168598 0  0.5032958289386806 0.7436030522993449 0  0.5295666185337295 0.7443969280917235 0  0.5557279242823712 0.7428705099374365 0  0.5815587466372201 0.7389489809225493 0  0.2911012251315891 0.5984723633671598 0  0.2910502319449383 0.4131710604213349 0  0.7008684290999551 0.6404583045689882 0  0.7274669021218656 0.5534309498461892 0  0.6136072180473215 0.7062942800020919 0  0.3347369589450923 0.3611039762433089 0  0.3920099479990612 0.3189627413748837 0  0.4564103599222968 0.2890692355053123 0  0.546925917022127 0.2763360777869477 0  0.6587425543971474 0.3306043928136463 0  0.3399326905651849 0.6561544006542508 0  0.3986922039870199 0.6908754181684177 0  0.7284355656670596 0.4816641693939809 0  0.7118369212097224 0.4115636854325522 0  0.2621958318834098 0.4737923001003846 0  0.542708613674042 0.7207021388307083 0  0.4686701053759853 0.715601733927739 0  0.6059928568657746 0.2938842354613595 0  0.2620461931545951 0.545389185880902 0  0.6893970974225309 0.3716076078610789 0  0.5009822608619823 0.2763964124044713 0  0.6550750627343592 0.6867227257651881 0  0.719834104016421 0.5984081788153301 0  0.2544865540245508 0.5113913809922609 0  0.4131473145441857 0.3065434993846174 0  0.4130954423732976 0.3328849868857523 0  0.3935816510287441 0.3457638681515552 0  0.4150994822603777 0.359678276646353 0  0.3941487422235138 0.3737054545594679 0  0.4142261211088896 0.386054848497451 0  0.4410351823075354 0.3755433023682758 0  0.3951401085254861 0.4036123790898961 0  0.42630312672675 0.4211039057164691 0  0.3940924712750946 0.4419020525174432 0  0.4649775041382752 0.4142655558480661 0  0.4822980268160555 0.3674294650432419 0  0.5076420771719315 0.4127257420524989 0  0.5283204948265008 0.3700740416055077 0  0.5510992499185835 0.4128887190798262 0  0.5699695750830583 0.3719527769598817 0  0.5932482863881761 0.413250935055788 0  0.3711497250919724 0.4195235099028569 0  0.362658479425631 0.4541967591039037 0  0.3927566181457463 0.4827214613366995 0  0.3617266230979716 0.4985627254102402 0  0.389366916520596 0.5233874146733242 0  0.357612960343055 0.5385408477646233 0  0.3836557315311652 0.5629434607874195 0  0.3320849146930476 0.514286098438354 0  0.3543200467839949 0.5772072152494659 0  0.3757843239556194 0.5980501931962753 0  0.4062331144085261 0.5910172280347674 0  0.6081887403943402 0.3774460850649958 0  0.6327242560351414 0.4072242248403283 0  0.6151844697517889 0.4435929358586147 0  0.6508018095397667 0.4375228132462208 0  0.6406184126624819 0.4747964813138792 0  0.5490247569962751 0.346773780293252 0  0.4062909699630671 0.6207417118154479 0  0.4333086632377708 0.6157645332016694 0  0.594837824406668 0.4824877497300836 0  0.6198696335980338 0.5138010144724515 0  0.6552982872793293 0.5048775380825807 0  0.6514770667200978 0.5448706556282027 0  0.6034700738118931 0.553588565208304 0  0.6323456449088595 0.5880161308405125 0  0.5884205315808295 0.5942644286782978 0  0.6166207180237225 0.6298970715065785 0  0.5743327440909861 0.6396928595456999 0  0.5482785713510318 0.60
[...]
<PointData  Scalars="u"> 
<DataArray  type="Float64"  Name="u"  format="ascii">0.0000000000000000e+00  0.0000000000000000e+00  0.0000000000000000e+00  0.0000000000000000e+00  0.0000000000000000e+00  0.0000000000000000e+00  0.0000000000000000e+00  0.0000000000000000e+00  3.5377576462410498e-01  3.1746899881108942e-01  0.0000000000000000e+00  0.0000000000000000e+00  0.0000000000000000e+00  0.0000000000000000e+00  0.0000000000000000e+00  0.0000000000000000e+00  0.0000000000000000e+00  0.0000000000000000e+00  0.0000000000000000e+00  0.0000000000000000e+00  0.0000000000000000e+00  0.0000000000000000e+00  0.0000000000000000e+00  0.0000000000000000e+00  0.0000000000000000e+00  0.0000000000000000e+00  0.0000000000000000e+00  0.0000000000000000e+00  0.0000000000000000e+00  0.0000000000000000e+00  0.0000000000000000e+00  0.0000000000000000e+00  0.0000000000000000e+00  0.0000000000000000e+00  0.0000000000000000e+00  0.0000000000000000e+00  0.0000000000000000e+00  0.0000000000000000e+00  0.0000000000000000e+00  0.0000000000000000e+00  0.0000000000000000e+00  0.0000000000000000e+00  0.0000000000000000e+00  0.0000000000000000e+00  0.0000000000000000e+00  0.0000000000000000e+00  0.0000000000000000e+00  0.0000000000000000e+00  0.0000000000000000e+00  0.0000000000000000e+00  0.0000000000000000e+00  0.0000000000000000e+00  0.0000000000000000e+00  0.0000000000000000e+00  0.0000000000000000e+00  0.0000000000000000e+00  0.0000000000000000e+00  0.0000000000000000e+00  0.0000000000000000e+00  0.0000000000000000e+00  0.0000000000000000e+00  0.0000000000000000e+00  0.0000000000000000e+00  0.0000000000000000e+00  0.0000000000000000e+00  0.0000000000000000e+00  0.0000000000000000e+00  0.0000000000000000e+00  0.0000000000000000e+00  0.0000000000000000e+00  0.0000000000000000e+00  0.0000000000000000e+00  0.0000000000000000e+00  0.0000000000000000e+00  0.0000000000000000e+00  0.0000000000000000e+00  0.0000000000000000e+00  0.0000000000000000e+00  0.0000000000000000e+00  0.0000000000000000e+00  0.0000000000000000e+00  0.0000000000000000e+00  0.0000000000000000e+00  0.0000000000000000e+00  0.0000000000000000e+00  0.0000000000000000e+00  0.0000000000000000e+00  0.0000000000000000e+00  0.0000000000000000e+00  0.0000000000000000e+00  0.0000000000000000e+00  0.0000000000000000e+00  0.0000000000000000e+00  0.0000000000000000e+00  0.0000000000000000e+00  0.0000000000000000e+00  0.0000000000000000e+00  0.0000000000000000e+00  0.0000000000000000e+00  0.0000000000000000e+00  0.0000000000000000e+00  0.0000000000000000e+00  0.0000000000000000e+00  0.0000000000000000e+00  0.0000000000000000e+00  0.0000000000000000e+00  0.0000000000000000e+00  0.0000000000000000e+00  0.0000000000000000e+00  0.0000000000000000e+00  0.0000000000000000e+00  0.0000000000000000e+00  0.0000000000000000e+00  0.0000000000000000e+00  0.0000000000000000e+00  0.0000000000000000e+00  0.0000000000000000e+00  0.0000000000000000e+00  0.0000000000000000e+00  0.0000000000000000e+00  0.0000000000000000e+00  0.0000000000000000e+00  0.0000000000000000e+00  0.0000000000000000e+00  0.0000000000000000e+00  0.0000000000000000e+00  0.0000000000000000e+00  0.0000000000000000e+00  0.0000000000000000e+00  0.0000000000000000e+00  0.0000000000000000e+00  0.0000000000000000e+00  0.0000000000000000e+00  0.0000000000000000e+00  0.0000000000000000e+00  0.0000000000000000e+00  0.0000000000000000e+00  0.0000000000000000e+00  0.0000000000000000e+00  0.0000000000000000e+00  0.0000000000000000e+00  0.0000000000000000e+00  0.0000000000000000e+00  0.0000000000000000e+00  0.0000000000000000e+00  0.0000000000000000e+00  0.0000000000000000e+00  0.0000000000000000e+00  0.0000000000000000e+00  0.0000000000000000e+00  0.0000000000000000e+00  0.0000000000000000e+00  0.0000000000000000e+00  0.0000000000000000e+00  0.0000000000000000e+00  0.0000000000000000e+00  0.0000000000000000e+00  0.0000000000000000e+00  0.0000000000000000e+00  0.0000000000000000e+00  0.0000000000000000e+00  0.0000000000000000e+00  0.0000000000000000e+00  0.0000000000000000e+00  0.0000000000000000e+00  0.0000000000000000e+00  0.0000000000000000e+00  0.0000000000000000e+00  0.0000000000000000e+00  0.0000000000000000e+00  0.0000000000000000e+00  0.0000000000000000e+00  0.0000000000000000e+00  0.0000000000000000e+00  0.0000000000000000e+00  0.0000000000000000e+00  0.0000000000000000e+00  0.0000000000000000e+00  3.1725695519724306e-01  3.1691595302776515e-01  3.1587205356901438e-01  3.1576777887697832e-01  3.1604202966852157e-01  3.1618083816469250e-01  3.1689634393387117e-01  3.1762037268869303e-01  3.1771823865636611e-01  3.1819813643305761e-01  3.1861744748332621e-01  3.1897070011577822e-01  3.1917881138605914e-01  3.1897274464655340e-01  3.1848914512198567e-01  3.1811562796025611e-01  3.1773347378364158e-01  3.1704664915034508e-01  3.1662836524558369e-01  3.1624101877754424e-01  3.1626785527389434e-01  3.1601423480787216e-01  3.1578950344742218e-01  3.1581087354813969e-01  3.1551711966094109e-01  3.1554248357253767e-01  3.1649301116555684e-01  3.1762367230897814e-01  3.1842316811088578e-01  3.1948419703060493e-01  3.1990041893223226e-01  3.2063376032046548e-01  3.2105975297652162e-01  3.2117350453283688e-01  3.2119250742013233e-01  3.2089263135032198e-01  3.1959094577089925e-01  3.1854711192373669e-01  3.1755258353123489e-01  3.1632445059501468e-01  3.1508708936292773e-01  3.1378319376195707e-01  3.1271470463026613e-01  3.1323105836979992e-01  3.1343905449440229e-01  3.1435040702809525e-01  3.1471073172495340e-01  3.1519444147187359e-01  3.1679814967054687e-01  3.1789624124955601e-01  3.1967614223133878e-01  3.2071980836254943e-01  3.2111812539236723e-01  3.2125916555331430e-01  3.2155768843289229e-01  3.2181423428062167e-01  3.2138444402509270e-01  3.2066630046288547e-01  3.2027040906178150e-01  3.1970384053063550e-01  3.1908484656076536e-01  3.1821899515332908e-01  3.3139786004333338e-01  3.3156165654186670e-01  3.2957603003789671e-01  3.3190644625573962e-01  3.3156933635167829e-01  3.3358544707324433e-01  3.3404931021017281e-01  3.3280562653727630e-01  3.3033793997729249e-01  3.3041250455068977e-01  3.3331012083803302e-01  3.3484362110207921e-01  3.3239901124381960e-01  3.3180431660160198e-01  3.2869210823115419e-01  3.3333119991890608e-01  3.3446034095934085e-01  3.3027718464384975e-01  3.2837912207241848e-01  3.3182407096291872e-01  3.3100035313882059e-01  3.3015243682740170e-01  3.3062361342331115e-01  3.2735297397819330e-01  3.3353565497746623e-01  3.3669975900314680e-01  3.3691838104578298e-01  3.3952804533641268e-01  3.3979638829934056e-01  3.4190726345498568e-01  3.4224391516108976e-01  3.4207188848870163e-01  3.4630516639250242e-01  3.4517293431706153e-01  3.4847366375149957e-01  3.4271232636660665e-01  3.4933755182670650e-01  3.4299581243882815e-01  3.4794982881859193e-01  3.4161100966812519e-01  3.4495206585492300e-01  3.4102471078348495e-01  3.4220482738334895e-01  3.4688624223161368e-01  3.4352300677308845e-01  3.4629433125436754e-01  3.4189724797817628e-01  3.4410916348313592e-01  3.3910013054503768e-01  3.3985428282373642e-01  3.4097348834113672e-01  3.4415520831080415e-01  3.3973184574198628e-01  3.3997972792456621e-01  3.4489358141992454e-01  3.4029263024445239e-01  3.4288734895600986e-01  3.3906845120883727e-01  3.4149207364174522e-01  3.4426365015898652e-01  3.4873336582108044e-01  3.4634472347334644e-01  3.4134122848213733e-01  3.4136240112541416e-01  3.4738268994972127e-01  3.4123131303318244e-01  3.4601951183443880e-01  3.3889237275072209e-01  3.4140873196529475e-01  3.4737298843496800e-01  3.4252369993147447e-01  3.3716426843577180e-01  3.4693352369767877e-01  3.4207720494965238e-01  3.3907464514855856e-01  3.4960697934595436e-01  3.3824050927200022e-01  3.3698957454178363e-01  3.3649382345611883e-01  3.3820088029444789e-01  3.3661212254133255e-01  3.3987392768241803e-01  3.4908509733063836e-01  3.3663579159578522e-01  3.3751545399044547e-01  3.3771331512616615e-01  3.3608221114257231e-01  3.3439371540713808e-01  3.3780662622628516e-01  3.3700557601384939e-01  3.3779843840158785e-01  3.3505028882729693e-01  3.3655106453534667e-01  3.3888943652403553e-01  3.3501951928540352e-01  3.3520506971774483e-01  3.3382539835464159e-01  3.3821447100516105e-01  3.3883658409174433e-01  3.3599870220471151e-01  3.3887484842890686e-01  3.3645348983647966e-01  3.3728869957279745e-01  3.3543616273470106e-01  3.3517512828132362e-01  3.3699080087693173e-01  3.3377189491486209e-01  3.3888311195245424e-01  3.3568520378024036e-01  3.3531048747009712e-01  3.3289089059002125e-01  3.3507381554988552e-01  3.3184409086747318e-01  3.3370532787482005e-01  3.3835746316234550e-01  3.3247183028954563e-01  3.3226667087496264e-01  3.3432366013060560e-01  3.5130766392847806e-01  3.3147504305864056e-01  3.3701747698917467e-01  3.5150505673060650e-01  3.4336358495587960e-01  3.3910201875516222e-01  3.3729919754788296e-01  3.3913367837720532e-01  3.3831230175638427e-01  3.3540378958829486e-01  3.3458485987697689e-01  3.5074182472763032e-01  3.3602616868581420e-01  3.3405658819219264e-01  3.3781876229671620e-01  3.3595540285543768e-01  3.3310387522809787e-01  3.5000508610394770e-01  3.3462239471930455e-01  3.3379084601989806e-01  3.3348991027409736e-01  3.3168441090885731e-01  3.3223681465795230e-01  3.3224726212365979e-01  3.3511301544207034e-01  3.3206827359334368e-01  3.3930551537129916e-01  3.3163098643098438e-01  3.3469457753118970e-01  3.3386766131879786e-01  3.3389778387722813e-01  3.3192395234788130e-01  3.3572624738713652e-01  3.3169585430992377e-01  3.3168103490764705e-01  3.2908996802815832e-01  3.3699153873226606e-01  3.3644540826561115e-01  3.3205854907874177e-01  3.3041017539559941e-01  3.3388274944130708e-01  3.3121082077020803e-01  3.3472217297275886e-01  3.3338102734752406e-01  3.3108311039378235e-01  3.4828054445404799e-01  3.3500349702288440e-01  3.3050149198387574e-01  3.3639459835250707e-01  3.3375552024165067e-01  3.3102148084019040e-01  3.2943478250009028e-01  3.3254863718696448e-01  3.3151375332492328e-01  3.4945428413157126e-01  3.3931343399756336e-01  3.3015552125578129e-01  3.3080319896091598e-01  3.2954823320604304e-01  3.2911414724977017e-01  3.3551215318751931e-01  3.4847630384201284e-01  3.5249350877350799e-01  3.3226361430089257e-01  3.3233477105631426e-01  3.3516273204891006e-01  3.3345351904404080e-01  3.3961764588870297e-01  3.2911587252534663e-01  3.5081385441477314e-01  3.3676789132304957e-01  3.3391019558750901e-01  3.2821240212995484e-01  3.5315471004777832e-01  3.3542554302372135e-01  3.3620249545897762e-01  3.3414197411439156e-01  3.3154102177827577e-01  3.2821708486508733e-01  3.3236422040086439e-01  3.3310134758506521e-01  3.3067926789999869e-01  3.2761146489078585e-01  3.2720219000912987e-01  3.3656220517319818e-01  3.3716335478020110e-01  3.3357629007569572e-01  3.3015980643401482e-01  3.3285898122087176e-01  3.2840338505708977e-01  3.4038365688801658e-01  3.3382401008053991e-01  3.3608670652907857e-01  3.3519590431886009e-01  3.4845646082635762e-01  3.3630921420124704e-01  3.3298785140432435e-01  3.3395934714957065e-01  3.2974243092703520e-01  3.2780434840072453e-01  3.5243409057370090e-01  3.3638159414906277e-01  3.3359228621629672e-01  3.2551501910523051e-01  3.5153464212970820e-01  3.3243363553141919e-01  3.3382664385772365e-01  3.3657769287675338e-01  3.3164233942075638e-01  3.3922412269313701e-01  3.3779880369722604e-01  3.3345697025929233e-01  3.3707792831416777e-01  3.3418729476628073e-01  3.3823236573692600e-01  3.4044215223025631e-01  3.3440922284791952e-01  3.3254288481631916e-01  3.3811624253126693e-01  3.3604644597020944e-01  3.3908189659415067e-01  3.3375867729986786e-01  3.3786884060731620e-01  3.3393233123451482e-01  3.3214851018505431e-01  3.3518687032806072e-01  3.3876457345724664e-01  3.3821724422940819e-01  3.5119402528890781e-01  3.3638411111952471e-01  3.4142866383161236e-01  3.3912438109150889e-01  3.3826938914725496e-01  3.3966705650241324e-01  3.4054322083204958e-01  3.3906950349989307e-01  3.3881169105065367e-01  3.3136186425954656e-01  2.9548169030087640e-01  2.9714380100772908e-01  2.8624578958787500e-01  2.8301493171430686e-01  2.8506542106131944e-01  2.9184927564730967e-01  2.9340341947545251e-01  2.8332718213448127e-01  2.9470911956763285e-01  2.8691201316748627e-01  2.8878488211603420e-01  2.8726791401291557e-01  2.9219309068642679e-01  2.9201454623150824e-01  2.8760925950202293e-01  1.2476196270605585e-02  1.4929134790346027e-02  2.9238897112140799e-01  2.9326711496094804e-01  1.4257333019921686e-02  1.8334105680810748e-02  1.5664746284176294e-02  2.9231644867066486e-01  1.4666955925346059e-02  1.7677776595890177e-02  2.8582472836100209e-01  2.8223135531408483e-01  2.0799132661827334e-02  2.8243357804862612e-01  2.0385467824664209e-02  2.4276022300310774e-02  2.9015085073010760e-01  2.8088800586076268e-01  2.8885784467697401e-01  2.9310624192854538e-02  2.7709508310860935e-02  3.0432391105452556e-02  3.1897616149715161e-02  2.7063506686471100e-01  3.0748868838396490e-02  2.9568324802325668e-02  3.2525057368120197e-02  3.8816394287864375e-02  3.8201218934708903e-02  2.6664827655275170e-02  6.3970363310754839e-03  6.2096874318236395e-03  8.6296933483881785e-03  8.4429425372349910e-03  3.8504891140297683e-02  4.3008456371553733e-02  5.7000098298213278e-03  6.5531100841642173e-03  6.7012431309486278e-03  8.0413223482696701e-03  2.6634760864692414e-01  2.2432456083100086e-01  2.1615382218977316e-01  2.2740900477236670e-01  1.7420110589377960e-01  1.6190261981268453e-01  1.2350329439293377e-01  1.9912887751973479e-01  1.5138358627198209e-01  1.7444821712087685e-01  1.3217793985361151e-01  1.2634220657358264e-01  1.5396152348018749e-01  1.0323361487162351e-01  1.2049541083989934e-01  1.6529601561289189e-01  1.4078078106404823e-01  1.8006907928153748e-01  1.4483361251397545e-01  1.0834319370310654e-01  1.1535262145952058e-01  1.5890965729405634e-01  1.2268908470960260e-01  1.5888028768980406e-01  1.2450978181910941e-01  1.6182962261650422e-01  1.2240334057566972e-01  9.3075124757876951e-02  1.5823723671901735e-01  1.1688100823200359e-01  1.4476562741960003e-01  1.0705131203483802e-01  1.3208389982091254e-01  8.3668615135505775e-02  8.9518056248208994e-02  7.3643254866007285e-02  1.7368311046986415e-01  1.6368606243761874e-01  1.1787676123768502e-01  1.4138915194959487e-01  2.1838975530823321e-01  1.9909423699991680e-01  2.0773514129174056e-01  1.9026252546746322e-01  9.9819531680072418e-02  1.2093519450049027e-01  1.6569066199022053e-01  1.4210120855536029e-01  1.9007420121972102e-01  1.6465125763652438e-01  1.1186081532430762e-01  1.2884714766022648e-01  1.8385315257693405e-01  1.5427057145850498e-01  1.0386188002117402e-01  1.1849889127421601e-01  1.6413014565731660e-01  1.2867956872121936e-01  1.7040081055933731e-01  1.3993476641369981e-01  1.7974524505028994e-01  1.3935581483091852e-01  1.7440065644495453e-01  1.3606687980509707e-01  1.7095780140892033e-01  1.2705020479925622e-01  1.5482047262164880e-01  1.1518480280270650e-01  1.3810524446095976e-01  1.0086217021137214e-01  1.1929023403804370e-01  8.1524295665370103e-02  6.9535377716729338e-02  1.0221232668033413e-01  1.6409769403044935e-01  1.3520069135415569e-01  9.8756903485973685e-02  1.1163756238829423e-01  1.6170992139338877e-01  1.2418031621919698e-01  1.6682618200990926e-01  1.3153236487094624e-01  5.3926070045622401e-02  7.6437224545610125e-02  1.7288945990289356e-01  1.3604935692690340e-01  1.8291641258802635e-01  1.3881052697162072e-01  1.8555699815628290e-01  1.3958077149563305e-01  1.8395192340314828e-01  1.3592120084169179e-01  1.7082074110934212e-01  1.2794636825873709e-01  1.6589726509043140e-01  1.1946454159094920e-01  1.5194670785258618e-01  1.0782630690410042e-01  1.3136945766346012e-01  9.3082621664719215e-02  1.1259522439741487e-01  7.7230535873277009e-02  9.2935453647549890e-02  1.2961691720379331e-01  1.0583514893249804e-01  7.3963997510014701e-02  8.3100931679176052e-02  1.1500834882097193e-01  8.8390786283635267e-02  1.1914170900767938e-01  8.9565079805825148e-02  1.1857834523338390e-01  8.7171335584078760e-02  1.1381553207721279e-01  6.0844772075428599e-02  1.5422287203096738e-01  8.2540578852078120e-02  1.0639281791056350e-01  1.4406869374767686e-01  1.3109387121546973e-01  9.5034352415191412e-02  1.7428065163359283e-01  9.3033335610820375e-02  1.1762836257275311e-01  1.5932422914511563e-01  1.4159565896311044e-01  1.0068414979424133e-01  1.2228670786576240e-01  1.6533851014400214e-01  1.4355351895656435e-01  1.9266544540149699e-01  1.6392672232637664e-01  1.2243019695894206e-01  1.4580335272349051e-01  1.0180697372058546e-01  1.1778641847506138e-01  1.5750153319390392e-01  1.3087841345161527e-01  1.6961415282301176e-01  1.4259261593796330e-01  1.0677133505503422e-01  1.1558994000889028e-01  1.5101664611836652e-01  1.2130241810078499e-01  1.5559068755736299e-01  1.2427370665934903e-01  9.3896365190028197e-02  9.4570047992537626e-02  1.2371701660616453e-01  6.8853534340151054e-02  9.2309010687325013e-02  1.1934534172977984e-01  8.4214895346248958e-02  1.5599017546544044e-01  1.4772471812883101e-01  1.1103093592993822e-01  1.4306780635694274e-01  1.9011313033174068e-01  1.9995298784021928e-01  1.9515396826008469e-01  9.8677944786933286e-02  4.4258859070759222e-02  7.5003163813558080e-02  6.2261418765573451e-02  5.6325060120680802e-02  2.1168039595900875e-01  9.6568477794512553e-02  9.9370604305974025e-02  1.2562173914644792e-01  7.6931886595145049e-02  2.1129998568324276e-01  1.9426670424061179e-01  9.3442782530446994e-02  1.7160246846636526e-01  1.4788337235966176e-01  5.9449865236506645e-02  8.3075984106124282e-02  6.0160784114100981e-02  2.1227409632853625e-01  2.4024351173195163e-01  2.3151772101532284e-01  8.1565782821518093e-02  9.9614598516079095e-02  6.7244975184445693e-02  4.5966587345600683e-02  4.7409278038579604e-02  6.6921056206922402e-02  3.0088900942885782e-02  3.2147919963773162e-02  6.5080847784257628e-02  6.1580305623569205e-02  8.0731414827036913e-02  2.9813470274467842e-02  4.5132561748321580e-02  5.6084586427317833e-02  6.2339664706857360e-02  4.0307584029469552e-02  4.3524635833834042e-02  4.3717578830133080e-02  2.0263141423825556e-01  2.0938099037680402e-01  2.0530576201621409e-01  2.1927940503318544e-01  2.1354829309789894e-01  2.1254764549438040e-01  2.3360517759287172e-01  8.9503420752491458e-02  7.9585327974426578e-02  2.3049421868023662e-01  4.7178726510806013e-02  8.9348878119053052e-02  2.2392603467792380e-01  2.1825027304786357e-01  4.2018751849463874e-02  2.5951963250071389e-02  2.2470492066962428e-01  2.5073022944588158e-01  2.4123065891668019e-01  2.7138394278828981e-01  2.2708117833852234e-01  2.6510196273267189e-01  4.6281644004845697e-02  3.3913150958362850e-02  2.3366347847395910e-01  8.3208383631658681e-02  8.4096332809429686e-02  2.0212435174451859e-01  7.8191197807544896e-02  4.8755196069107394e-02  5.2471128442211037e-02  4.1849698677523924e-02  2.8118998863026090e-01  2.4833749528565346e-01  2.4746681003071272e-01  2.4331281431053955e-01  2.0503811656198170e-01  2.4754931606085201e-01  2.0395956179691782e-01  2.0982887566233419e-01  2.2768058584454898e-01  2.1197873482725735e-01  2.3991083856119522e-01  2.2052383419690083e-01  2.0559724747536925e-01  2.2196329320483765e-01  1.9151821092480870e-01  2.3430818357427469e-01  2.8262810377171649e-01  2.7271175338195752e-01  2.3023071063327122e-01  2.1724463557772286e-01  2.5570758686309869e-01  2.4428390054228705e-01  2.8628490891223207e-01  1.8086039526219053e-02  2.7763873243381093e-01  2.8216295346438175e-01  2.3977160002635518e-02  2.4127908957282690e-01  1.9406443179596025e-01  2.3296120641995832e-01  2.4123826382005113e-02  1.7236454393825604e-01  2.3187906094726939e-02  2.7052543402261996e-02  4.4492925573928178e-02  2.4007082362637763e-02  4.3359292405986009e-02  2.8862327333990045e-01  2.5443904054391364e-01  2.5444215305186257e-01  2.4858757451829633e-01  2.1502240868158393e-01  2.1685473111867476e-01  2.7305702527999115e-01  2.3398858911503992e-01  2.1318272865526849e-01  1.4954601576630771e-02  1.6222239292760141e-01  2