<?xml version="1.0"?>
<VTKFile type="UnstructuredGrid"  version="0.1"  >
<UnstructuredGrid>
<Piece  NumberOfPoints="1256" NumberOfCells="2414">
<Points>
<DataArray  type="Float64"  NumberOfComponents="3"  format="ascii">0 0 0  0 1 0  1 1 0  1 0 0  1.1 -0.1 0  -0.1 -0.1 0  1.1 1.1 0  -0.1 1.1 0  0.5 0.5 0  0.5943465651348016 0.7028661593940634 0  0 0.9499999999997918 0  0 0.8999999999995836 0  0 0.8499999999996529 0  0 0.7999999999999998 0  0 0.7500000000003466 0  0 0.7000000000006934 0  0 0.6500000000010401 0  0 0.6000000000013869 0  0 0.5500000000017335 0  0 0.5000000000020587 0  0 0.4500000000018723 0  0 0.4000000000016644 0  0 0.3500000000014564 0  0 0.3000000000012483 0  0 0.2500000000010403 0  0 0.2000000000008322 0  0 0.1500000000006241 0  0 0.100000000000416 0  0 0.05000000000020799 0  0.04999999999989965 0 0  0.09999999999981467 0 0  0.1499999999997036 0 0  0.1999999999995579 0 0  0.2499999999994121 0 0  0.2999999999992664 0 0  0.3499999999991206 0 0  0.3999999999989749 0 0  0.4499999999988292 0 0  0.4999999999986943 0 0  0.5499999999988151 0 0  0.5999999999989468 0 0  0.6499999999990784 0 0  0.69999999999921 0 0  0.7499999999993417 0 0  0.7999999999994734 0 0  0.8499999999996051 0 0  0.8999999999997368 0 0  0.9499999999998684 0 0  1 0.04999999999989965 0  1 0.09999999999981467 0  1 0.1499999999997036 0  1 0.1999999999995579 0  1 0.2499999999994121 0  1 0.2999999999992664 0  1 0.3499999999991206 0  1 0.3999999999989749 0  1 0.4499999999988292 0  1 0.4999999999986943 0  1 0.5499999999988151 0  1 0.5999999999989468 0  1 0.6499999999990784 0  1 0.69999999999921 0  1 0.7499999999993417 0  1 0.7999999999994734 0  1 0.8499999999996051 0  1 0.8999999999997368 0  1 0.9499999999998684 0  0.9499999999997918 1 0  0.8999999999995836 1 0  0.8499999999996529 1 0  0.7999999999999998 1 0  0.7500000000003466 1 0  0.7000000000006934 1 0  0.6500000000010401 1 0  0.6000000000013869 1 0  0.5500000000017335 1 0  0.5000000000020587 1 0  0.4500000000018723 1 0  0.4000000000016644 1 0  0.3500000000014564 1 0  0.3000000000012483 1 0  0.2500000000010403 1 0  0.2000000000008322 1 0  0.1500000000006241 1 0  0.100000000000416 1 0  0.05000000000020799 1 0  -0.1 1.05000000000004 0  -0.1 1.000000000000079 0  -0.1 0.9500000000001624 0  -0.1 0.9000000000003032 0  -0.1 0.850000000000444 0  -0.1 0.8000000000005848 0  -0.1 0.7500000000007256 0  -0.1 0.7000000000008665 0  -0.1 0.6500000000010508 0  -0.1 0.6000000000012352 0  -0.1 0.5500000000014196 0  -0.1 0.500000000001539 0  -0.1 0.4500000000014195 0  -0.1 0.4000000000013 0  -0.1 0.3500000000011588 0  -0.1 0.3000000000010178 0  -0.1 0.2500000000008986 0  -0.1 0.2000000000007579 0  -0.1 0.1500000000006174 0  -0.1 0.1000000000005272 0  -0.1 0.05000000000040083 0  -0.1 2.671196597248127e-13 0  -0.1 -0.0499999999998666 0  -0.0500000000000906 -0.1 0  -1.730560139634463e-13 -0.1 0  0.04999999999975802 -0.1 0  0.09999999999961506 -0.1 0  0.1499999999994613 -0.1 0  0.199999999999302 -0.1 0  0.2499999999991446 -0.1 0  0.2999999999990088 -0.1 0  0.3499999999988296 -0.1 0  0.3999999999986936 -0.1 0  0.4499999999985143 -0.1 0  0.4999999999984002 -0.1 0  0.5499999999985247 -0.1 0  0.5999999999986493 -0.1 0  0.6499999999987955 -0.1 0  0.6999999999989417 -0.1 0  0.7499999999990659 -0.1 0  0.7999999999992116 -0.1 0  0.8499999999993573 -0.1 0  0.8999999999994526 -0.1 0  0.949999999999584 -0.1 0  0.9999999999997226 -0.1 0  1.049999999999861 -0.1 0  1.1 -0.0500000000000906 0  1.1 -1.730560139634463e-13 0  1.1 0.04999999999975802 0  1.1 0.09999999999961506 0  1.1 0.1499999999994613 0  1.1 0.199999999999302 0  1.1 0.2499999999991446 0  1.1 0.2999999999990088 0  1.1 0.3499999999988296 0  1.1 0.3999999999986936 0  1.1 0.4499999999985143 0  1.1 0.4999999999984002 0  1.1 0.5499999999985247 0  1.1 0.5999999999986493 0  1.1 0.6499999999987955 0  1.1 0.6999999999989417 0  1.1 0.7499999999990659 0  1.1 0.7999999999992116 0  1.1 0.8499999999993573 0  1.1 0.8999999999994526 0  1.1 0.949999999999584 0  1.1 0.9999999999997226 0  1.1 1.049999999999861 0  1.05000000000004 1.1 0  1.000000000000079 1.1 0  0.9500000000001624 1.1 0  0.9000000000003032 1.1 0  0.850000000000444 1.1 0  0.8000000000005848 1.1 0  0.7500000000007256 1.1 0  0.7000000000008665 1.1 0  0.6500000000010508 1.1 0  0.6000000000012352 1.1 0  0.5500000000014196 1.1 0  0.500000000001539 1.1 0  0.4500000000014195 1.1 0  0.4000000000013 1.1 0  0.3500000000011588 1.1 0  0.3000000000010178 1.1 0  0.2500000000008986 1.1 0  0.2000000000007579 1.1 0  0.1500000000006174 1.1 0  0.1000000000005272 1.1 0  0.05000000000040083 1.1 0  2.671196597248127e-13 1.1 0  -0.0499999999998666 1.1 0  0.618705087262168 0.6974068705786838 0  0.6421983397122545 0.6889868571765561 0  0.6642772376196213 0.6773716670824039 0  0.6843218173947471 0.6625271055848508 0  0.7014176192754893 0.6443664664128742 0  0.7145054082624744 0.6231638578043439 0  0.7237605112973136 0.5999825480578396 0  0.7302193997230656 0.5758726879315844 0  0.7341254565597859 0.5512190560154838 0  0.7359522464658003 0.5263187443316026 0  0.7359725665490569 0.5013501354200774 0  0.7343271618633396 0.4764361234429341 0  0.7310076724487956 0.4516895019466349 0  0.7260235587162269 0.4272238115469519 0  0.719395990262331 0.4031511791499109 0  0.7111380101103837 0.379588505102098 0  0.7012384148753258 0.3566676997400802 0  0.6896123086242324 0.3345730836631247 0  0.6759363328439481 0.3136912685815949 0  0.6601480750255241 0.2943576889674641 0  0.6421992519422928 0.2770274082263673 0  0.6217891688297782 0.2626777666794751 0  0.5994245920228304 0.2516241916589376 0  0.5754863368692915 0.2446451190085967 0  0.5507232661522015 0.2415718210800224 0  0.5257654521480035 0.2418416162418687 0  0.5009879523223094 0.2448834522001568 0  0.4765905994034041 0.2501770196927479 0  0.4527024337760469 0.2574349344157587 0  0.4294182462993284 0.2664468626762214 0  0.4067381619560069 0.2768916636730525 0  0.3845918610383594 0.2884294819712109 0  0.3629619498351816 0.3009062772986315 0  0.3419724095355113 0.3144328843751162 0  0.321664189475735 0.3289625044877166 0  0.3020595326228052 0.344428232035685 0  0.2832283143288675 0.3608263646543073 0  0.2656306981172618 0.3785361164456986 0  0.2491645644013671 0.3973080108597696 0  0.233989647485973 0.4171332708734306 0  0.220271711341423 0.4379967788207747 0  0.2084496082292401 0.4599742756589651 0  0.2003379867894779 0.4835318110869983 0  0.1987335867894833 0.5083440831296405 0  0.2047364935569739 0.5325001558849349 0  0.2165676400259272 0.5544558008579392 0  0.231613999097646 0.5743659346361225 0  0.248794439748254 0.5924754718355345 0  0.2673795165191294 0.6091470580513544 0  0.2871549072372985 0.6243885693341715 0  0.3078980646378972 0.6382876409433685 0  0.3294303606726202 0.6509304873165392 0  0.351651218815602 0.6623196310210909 0  0.3744887638433448 0.6724161749521154 0  0.3978243488691402 0.6813022860209534 0  0.4215747756204537 0.6890126414210043 0  0.4456910290932778 0.6954854970375082 0  0.4701285267476083 0.7006126906991208 0  0.4948192828547486 0.7043331610300342 0  0.5196869114209379 0.7065854333065745 0  0.5446473149964245 0.7072188441762902 0  0.5695862710950989 0.7060477143787584 0  0.2726428857157261 0.580048700351547 0  0.2737640856568268 0.4009960487243663 0  0.6915642101562034 0.6235351557076463 0  0.7134771770466221 0.537187046509556 0  0.6026149379746808 0.6791041686703677 0  0.3243940214359323 0.352997102882223 0  0.3845013203240988 0.3133625848155638 0  0.4488647534440151 0.2821052207250722 0  0.5388907856241727 0.2625264644300997 0  0.6491939555206072 0.3148008737398304 0  0.3313282072899892 0.6284650326167978 0  0.3924678234436714 0.6562480358236084 0  0.7124744581414453 0.4667753413266431 0  0.6969720937993333 0.3977788109344219 0  0.2333783100284997 0.4592154739795495 0  0.5328866363046647 0.68578332903613 0  0.4614925748755084 0.6777488193512965 0  0.5984039622278172 0.2766313391527895 0  0.2311662519677583 0.5324263250084901 0  0.6767916914068806 0.3573367913022918 0  0.4928852953504733 0.2666355313099755 0  0.6447266736845663 0.6651334523400847 0  0.7083659780289981 0.5818081130613948 0  0.2198539281630322 0.4979554736941831 0  0.4059059860696014 0.3010391040897276 0  0.4047122876580385 0.3256575952722384 0  0.3844973322033741 0.3383209864045944 0  0.4053043562972444 0.3506623071352754 0  0.383237885547722 0.3644128443368859 0  0.402899915681918 0.375373311561638 0  0.430749862460421 0.3645535311643292 0  0.3822612553951838 0.3923214571142714 0  0.4134878452268757 0.407744903503951 0  0.37891156526553 0.4280193155084089 0  0.4534869461440746 0.4000508789610802 0  0.4727756161213043 0.3550258259551812 0  0.4968184813483956 0.3972230378722066 0  0.5188454240371146 0.3554805252644257 0  0.5403513633235635 0.3963535929573386 0  0.5601993223119509 0.355938227109922 0  0.58202283113373 0.3963307340784935 0  0.3562929313837317 0.4077085829819722 0  0.34493518855259 0.4402621527647812 0  0.3758960841528699 0.4658853844698676 0  0.3421461015160983 0.4815283748083478 0  0.3719798863434818 0.5034409277837913 0  0.3379812208759599 0.5186368936549522 0  0.367129470828885 0.539922588046241 0  0.3094208767893238 0.497310996549977 0  0.3368085534888036 0.5544623287733119 0  0.3611605549084294 0.5724560279543098 0  0.3924107134275646 0.5648032531255514 0  0.5976556236579454 0.3609204907054602 0  0.6207410844741458 0.390732032074183 0  0.6030174830440826 0.426290327153455 0  0.6377371025646252 0.4210947868810521 0  0.6276906709436034 0.4574386573204579 0  0.5401403219488157 0.33190567593776 0  0.3944248793424261 0.5919982454666816 0  0.4217185603459527 0.5868049651435862 0  0.5828470624071508 0.4638326569775915 0  0.6077184637982109 0.494859128460897 0  0.6422247799884075 0.487363285128407 0  0.639346998848398 0.5263529446633641 0  0.5922030116644555 0.5326799137963114 0  0.6216526521916074 0.5674010518135767 0  0.5780215508261982 0.5708082946471629 0  0.6068124142839786 0.6066639460564891 0  0.5646111991168906 0.6128441984190419 0  0.5379280849558823 0.5779941560268929 0  0.53046734710
[...]
<PointData  Scalars="u"> 
<DataArray  type="Float64"  Name="u"  format="ascii">0.0000000000000000e+00  0.0000000000000000e+00  0.0000000000000000e+00  0.0000000000000000e+00  0.0000000000000000e+00  0.0000000000000000e+00  0.0000000000000000e+00  0.0000000000000000e+00  3.4172951305213023e-01  3.0816140104300926e-01  0.0000000000000000e+00  0.0000000000000000e+00  0.0000000000000000e+00  0.0000000000000000e+00  0.0000000000000000e+00  0.0000000000000000e+00  0.0000000000000000e+00  0.0000000000000000e+00  0.0000000000000000e+00  0.0000000000000000e+00  0.0000000000000000e+00  0.0000000000000000e+00  0.0000000000000000e+00  0.0000000000000000e+00  0.0000000000000000e+00  0.0000000000000000e+00  0.0000000000000000e+00  0.0000000000000000e+00  0.0000000000000000e+00  0.0000000000000000e+00  0.0000000000000000e+00  0.0000000000000000e+00  0.0000000000000000e+00  0.0000000000000000e+00  0.0000000000000000e+00  0.0000000000000000e+00  0.0000000000000000e+00  0.0000000000000000e+00  0.0000000000000000e+00  0.0000000000000000e+00  0.0000000000000000e+00  0.0000000000000000e+00  0.0000000000000000e+00  0.0000000000000000e+00  0.0000000000000000e+00  0.0000000000000000e+00  0.0000000000000000e+00  0.0000000000000000e+00  0.0000000000000000e+00  0.0000000000000000e+00  0.0000000000000000e+00  0.0000000000000000e+00  0.0000000000000000e+00  0.0000000000000000e+00  0.0000000000000000e+00  0.0000000000000000e+00  0.0000000000000000e+00  0.0000000000000000e+00  0.0000000000000000e+00  0.0000000000000000e+00  0.0000000000000000e+00  0.0000000000000000e+00  0.0000000000000000e+00  0.0000000000000000e+00  0.0000000000000000e+00  0.0000000000000000e+00  0.0000000000000000e+00  0.0000000000000000e+00  0.0000000000000000e+00  0.0000000000000000e+00  0.0000000000000000e+00  0.0000000000000000e+00  0.0000000000000000e+00  0.0000000000000000e+00  0.0000000000000000e+00  0.0000000000000000e+00  0.0000000000000000e+00  0.0000000000000000e+00  0.0000000000000000e+00  0.0000000000000000e+00  0.0000000000000000e+00  0.0000000000000000e+00  0.0000000000000000e+00  0.0000000000000000e+00  0.0000000000000000e+00  0.0000000000000000e+00  0.0000000000000000e+00  0.0000000000000000e+00  0.0000000000000000e+00  0.0000000000000000e+00  0.0000000000000000e+00  0.0000000000000000e+00  0.0000000000000000e+00  0.0000000000000000e+00  0.0000000000000000e+00  0.0000000000000000e+00  0.0000000000000000e+00  0.0000000000000000e+00  0.0000000000000000e+00  0.0000000000000000e+00  0.0000000000000000e+00  0.0000000000000000e+00  0.0000000000000000e+00  0.0000000000000000e+00  0.0000000000000000e+00  0.0000000000000000e+00  0.0000000000000000e+00  0.0000000000000000e+00  0.0000000000000000e+00  0.0000000000000000e+00  0.0000000000000000e+00  0.0000000000000000e+00  0.0000000000000000e+00  0.0000000000000000e+00  0.0000000000000000e+00  0.0000000000000000e+00  0.0000000000000000e+00  0.0000000000000000e+00  0.0000000000000000e+00  0.0000000000000000e+00  0.0000000000000000e+00  0.0000000000000000e+00  0.0000000000000000e+00  0.0000000000000000e+00  0.0000000000000000e+00  0.0000000000000000e+00  0.0000000000000000e+00  0.0000000000000000e+00  0.0000000000000000e+00  0.0000000000000000e+00  0.0000000000000000e+00  0.0000000000000000e+00  0.0000000000000000e+00  0.0000000000000000e+00  0.0000000000000000e+00  0.0000000000000000e+00  0.0000000000000000e+00  0.0000000000000000e+00  0.0000000000000000e+00  0.0000000000000000e+00  0.0000000000000000e+00  0.0000000000000000e+00  0.0000000000000000e+00  0.0000000000000000e+00  0.0000000000000000e+00  0.0000000000000000e+00  0.0000000000000000e+00  0.0000000000000000e+00  0.0000000000000000e+00  0.0000000000000000e+00  0.0000000000000000e+00  0.0000000000000000e+00  0.0000000000000000e+00  0.0000000000000000e+00  0.0000000000000000e+00  0.0000000000000000e+00  0.0000000000000000e+00  0.0000000000000000e+00  0.0000000000000000e+00  0.0000000000000000e+00  0.0000000000000000e+00  0.0000000000000000e+00  0.0000000000000000e+00  0.0000000000000000e+00  0.0000000000000000e+00  0.0000000000000000e+00  0.0000000000000000e+00  0.0000000000000000e+00  0.0000000000000000e+00  0.0000000000000000e+00  0.0000000000000000e+00  0.0000000000000000e+00  0.0000000000000000e+00  0.0000000000000000e+00  0.0000000000000000e+00  0.0000000000000000e+00  0.0000000000000000e+00  0.0000000000000000e+00  3.0683195226338839e-01  3.0550987146355019e-01  3.0365965623549779e-01  3.0266542148492970e-01  3.0247993922176203e-01  3.0323365593383450e-01  3.0499285157275668e-01  3.0645494639022403e-01  3.0739604199607390e-01  3.0844835255142278e-01  3.0925114074513732e-01  3.0982573985152556e-01  3.1015048221434677e-01  3.0998108151155546e-01  3.0946527784599759e-01  3.0888789746337214e-01  3.0813017475142912e-01  3.0687799857369802e-01  3.0580889452970872e-01  3.0464493700578921e-01  3.0377110613955588e-01  3.0322537588316167e-01  3.0272773422663041e-01  3.0319218276429055e-01  3.0386033530716111e-01  3.0493711641486720e-01  3.0682942535984220e-01  3.0856445502058594e-01  3.0991580245877542e-01  3.1138185986779160e-01  3.1216521822628740e-01  3.1295519242617514e-01  3.1319333036745484e-01  3.1299999087128483e-01  3.1258444594063201e-01  3.1170388792627501e-01  3.0960658906946520e-01  3.0768709010547590e-01  3.0563087594437860e-01  3.0304888663773066e-01  2.9995084190540866e-01  2.9594590451104014e-01  2.9168386419027276e-01  2.9083766793252747e-01  2.9281862487927929e-01  2.9674225468056625e-01  2.9961147069943261e-01  3.0235694056375972e-01  3.0538739876494531e-01  3.0772215956044141e-01  3.1025549396264634e-01  3.1201639799105657e-01  3.1305557800445571e-01  3.1377298693868944e-01  3.1451641747290365e-01  3.1511546450127498e-01  3.1482039753870994e-01  3.1406735353296572e-01  3.1343605465309465e-01  3.1246329323049726e-01  3.1129411719198641e-01  3.0980021407828828e-01  3.1793600538169497e-01  3.1919407044490072e-01  3.1727604679145943e-01  3.2090992158351084e-01  3.2079510468161898e-01  3.2324232378832241e-01  3.2461576865836073e-01  3.2308446800825824e-01  3.1904643292067070e-01  3.1888177232077569e-01  3.2277423563084656e-01  3.2560578679547186e-01  3.2211341920659287e-01  3.2151020727525748e-01  3.1308631238692353e-01  3.2401901875558031e-01  3.2579534585702091e-01  3.1827295185096710e-01  3.1195166202067015e-01  3.2107503060572251e-01  3.2065789607497397e-01  3.1841971406728159e-01  3.1893004376969092e-01  3.1021206426571341e-01  3.2417248705004126e-01  3.2687927467902178e-01  3.2697789287401774e-01  3.2925729849252544e-01  3.2930165810726247e-01  3.3115978202334145e-01  3.3159137137276001e-01  3.3099309989351594e-01  3.3483575366937240e-01  3.3330289529585949e-01  3.3701119226889836e-01  3.3181915698626857e-01  3.3770653068414164e-01  3.3164601962735935e-01  3.3624774276829489e-01  3.3004761744159344e-01  3.3336297362884498e-01  3.2950583570284703e-01  3.2987752014467275e-01  3.3450443004388969e-01  3.3060771932872041e-01  3.3379794832470405e-01  3.2892828039388117e-01  3.3189192414952506e-01  3.2539514515798212e-01  3.2740716950708709e-01  3.2937698962509249e-01  3.3265578376317195e-01  3.2820860649651928e-01  3.2872670938240417e-01  3.3341759085727940e-01  3.2923884153361915e-01  3.3163351680780367e-01  3.2769140523540985e-01  3.3067983746201252e-01  3.3338841134220853e-01  3.3701565331049976e-01  3.3473763239395316e-01  3.3014531192161384e-01  3.2990332688571000e-01  3.3562830381036490e-01  3.2954543624583998e-01  3.3440880404813617e-01  3.2737930522099312e-01  3.3044504491352483e-01  3.3602045648111811e-01  3.3193732272012944e-01  3.2537267547569376e-01  3.3594477885142143e-01  3.3198335926970440e-01  3.2927639720504553e-01  3.3736891283281517e-01  3.2593047962101157e-01  3.2533927690417735e-01  3.2665387879365260e-01  3.2726092724459332e-01  3.2571016844799505e-01  3.2993715603220097e-01  3.3745653328076963e-01  3.2645670631235629e-01  3.2652930442481276e-01  3.2594603928649130e-01  3.2340161255812411e-01  3.2244234245800629e-01  3.2660302368719779e-01  3.2613123776641872e-01  3.2617287296701530e-01  3.2321118369612961e-01  3.2583971981504301e-01  3.2802669194401823e-01  3.2452376059509802e-01  3.2361432095346143e-01  3.2191360894727267e-01  3.2821092688157016e-01  3.2795603426897529e-01  3.2495736356996724e-01  3.2846285917113022e-01  3.2596642723273844e-01  3.2564392485280919e-01  3.2384339653561789e-01  3.2358433652417812e-01  3.2568199407284087e-01  3.2201909428706421e-01  3.2572042407199597e-01  3.2133242284058772e-01  3.2064562774730682e-01  3.1768969526867025e-01  3.2146533732234928e-01  3.1627880852738666e-01  3.1902580694743871e-01  3.2510577540524166e-01  3.1783518414249878e-01  3.1853059459968086e-01  3.2312133960844464e-01  3.3932364445285840e-01  3.1971831234041270e-01  3.2630423469265257e-01  3.3963190742301835e-01  3.3306029232448980e-01  3.2954655116429515e-01  3.2794150208811002e-01  3.2829606844148729e-01  3.2799682858983642e-01  3.2492922018544573e-01  3.2095374922015918e-01  3.3887216177147306e-01  3.2702522321073108e-01  3.2444811425312642e-01  3.2854660233977862e-01  3.2689568564363541e-01  3.2220409080541468e-01  3.3825005823742188e-01  3.2498186883973301e-01  3.2377053658216104e-01  3.2454288630620626e-01  3.2130245342342589e-01  3.2203890907293281e-01  3.2069197141059902e-01  3.2296263017160159e-01  3.2185825813857488e-01  3.2904509093478457e-01  3.2100089036107377e-01  3.2364987841723214e-01  3.2253581446494756e-01  3.2397988713666137e-01  3.2229963811584633e-01  3.2584403067309292e-01  3.2119843403088610e-01  3.2172531240393498e-01  3.1454690321562639e-01  3.2559863026097213e-01  3.2685438690881519e-01  3.2178078209944383e-01  3.1509997624131070e-01  3.2245625870789785e-01  3.2011218639394967e-01  3.2370506808418226e-01  3.2387275626162421e-01  3.1974411504986711e-01  3.3704870244282059e-01  3.2341267689879827e-01  3.1969978597202181e-01  3.2619964130780404e-01  3.2077321488136945e-01  3.1972359402835404e-01  3.1768733399713850e-01  3.2106153002756049e-01  3.1972542548618593e-01  3.3766829558125294e-01  3.2967471961558070e-01  3.1812001302588061e-01  3.1866119012809135e-01  3.1740292521294095e-01  3.1710074525796883e-01  3.2443735025757214e-01  3.3640275467449710e-01  3.4040361780334111e-01  3.2099681440483618e-01  3.2046537093537192e-01  3.2623132514987679e-01  3.2272523893024962e-01  3.2866002011599293e-01  3.1465136958912782e-01  3.3916342009989664e-01  3.2269492405151384e-01  3.2331723127204454e-01  3.1576586225353964e-01  3.4112151143419583e-01  3.2446079954992418e-01  3.2568955178051912e-01  3.2340868825240421e-01  3.1720618870483430e-01  3.1150679932591308e-01  3.2035612982008543e-01  3.2198177217226898e-01  3.1515338848281516e-01  3.1100941013456757e-01  3.1158376839337304e-01  3.2521930639471591e-01  3.2604269180008610e-01  3.2083252753207314e-01  3.1695157249901196e-01  3.2107258893862950e-01  3.1659377822606810e-01  3.3064694225419200e-01  3.2376030423907654e-01  3.2606950904474175e-01  3.2457821446775381e-01  3.3640836052748291e-01  3.2342645092058636e-01  3.2440928454816603e-01  3.2318044058132928e-01  3.1354332337096325e-01  3.1571233060047932e-01  3.4046231479593708e-01  3.2558349673142190e-01  3.2181707563556605e-01  3.0768435801927407e-01  3.3980401144354977e-01  3.2088105315504101e-01  3.2344467773488955e-01  3.2524026108099358e-01  3.1949689028981826e-01  3.2859348172751984e-01  3.2626022336702359e-01  3.2273431454988311e-01  3.2754654411473194e-01  3.2375718761841327e-01  3.2755261719305329e-01  3.3007671126151894e-01  3.2301832902941535e-01  3.2099244291444401e-01  3.2687686286325279e-01  3.2677013610415384e-01  3.2905959617323549e-01  3.2333063282012992e-01  3.2612273070171910e-01  3.2200835586966786e-01  3.2389439259778552e-01  3.2465927206061485e-01  3.2861030339728553e-01  3.2710284085122732e-01  3.3938250909981882e-01  3.2467983969029401e-01  3.3130247082118769e-01  3.2731122315156097e-01  3.2736533735687934e-01  3.2908496603921450e-01  3.2950313555616362e-01  3.2560623900471636e-01  3.2772594490675955e-01  3.1945685402771251e-01  2.8699346591081698e-01  2.8936372688463896e-01  2.7577873497214561e-01  2.7029926657882791e-01  2.7199321357512046e-01  2.8484483632711971e-01  2.8663076511849561e-01  2.7291738039710223e-01  2.8821416216332568e-01  2.7803255261064252e-01  2.7779348207777621e-01  2.7544450389710090e-01  2.8085261429666647e-01  2.8433669682669099e-01  2.7814795873238107e-01  1.2286666627338932e-02  1.3810862349781424e-02  2.8381030250223227e-01  2.8593462501784994e-01  1.3313220432349742e-02  1.7646393080111275e-02  1.4414412767115104e-02  2.8310466804186263e-01  1.4337516480486732e-02  1.7136221214019337e-02  2.7398678588693842e-01  2.7227852298046323e-01  1.9037495058257869e-02  2.6851146995696229e-01  2.1853469231802262e-02  2.4478514926765445e-02  2.8180423506599450e-01  2.6745968801257414e-01  2.7989197277883371e-01  2.9233484983239508e-02  2.6708918903813668e-02  2.7869224824653920e-02  3.0691332415619166e-02  2.5316869168508782e-01  2.8252796063084274e-02  2.7987253203263514e-02  3.2424373455243065e-02  3.6838249076127372e-02  3.5385300296459907e-02  2.8577918207470958e-02  5.5378647874768476e-03  5.5986478257589629e-03  7.8429379309617187e-03  8.2466804801877690e-03  3.5040869861980677e-02  3.8765195509298640e-02  5.2073309609659540e-03  5.6695337187949047e-03  6.3168777488751158e-03  7.7380950525301499e-03  2.4889294629310571e-01  2.1094850861219258e-01  2.0354249135940808e-01  2.1441887497024656e-01  1.6442474299531221e-01  1.5302342728108426e-01  1.1602607848793763e-01  1.8878397886514545e-01  1.4375773284511237e-01  1.6667075754048274e-01  1.2427926885892050e-01  1.2028995010877659e-01  1.4821487996505181e-01  9.8791452601283358e-02  1.1654813037133861e-01  1.6018499655392693e-01  1.3698464954719120e-01  1.7548540028219950e-01  1.4141989131481547e-01  1.0568565781283638e-01  1.1280979500126902e-01  1.5541410127448202e-01  1.2015815317145843e-01  1.5553691208659681e-01  1.2194224860286469e-01  1.5842152735860865e-01  1.1986751379265395e-01  9.1109380156735406e-02  1.5491936618401458e-01  1.1443694471274327e-01  1.4174277750996667e-01  1.0478487884029297e-01  1.2932480685356121e-01  8.1817670843558274e-02  8.7650897449005657e-02  7.1965549765964518e-02  1.6998801720117274e-01  1.6021368508918871e-01  1.1536798623501010e-01  1.3828916352105852e-01  2.1143190241935292e-01  1.9453185830298109e-01  2.0320766228408851e-01  1.8610026214735126e-01  9.7542612102726245e-02  1.1803893769622850e-01  1.6178911589987635e-01  1.3839323544464319e-01  1.8521431594859764e-01  1.5987708971101705e-01  1.0840616728518171e-01  1.2437796360502144e-01  1.7796097558404192e-01  1.4851099061891943e-01  9.9573022213343548e-02  1.1330794842676668e-01  1.5745182086002751e-01  1.2275347910193189e-01  1.6315772955737423e-01  1.3341501702048311e-01  1.7193826991082306e-01  1.3278228515364926e-01  1.6676885274633396e-01  1.2972555264389554e-01  1.6357957968516298e-01  1.2116886403532365e-01  1.4817599440005449e-01  1.0990142589608971e-01  1.3221661508229993e-01  9.6287660661831129e-02  1.1426591835021631e-01  7.7506113751851555e-02  6.6164271321830892e-02  9.7089849894583774e-02  1.5757163033110672e-01  1.2988473455333513e-01  9.4706684180749609e-02  1.0737137909136056e-01  1.5575713369455163e-01  1.1969941861001505e-01  1.6092520142119510e-01  1.2696566960940597e-01  5.1038227262328893e-02  7.3481606571422511e-02  1.6688969610121834e-01  1.3143594889480256e-01  1.7660093197242169e-01  1.3402198851975708e-01  1.7894704927622218e-01  1.3444368897381126e-01  1.7694869643773689e-01  1.3043766416115604e-01  1.6364255188907892e-01  1.2218308111481893e-01  1.5814456807466951e-01  1.1341333371797692e-01  1.4406897579584699e-01  1.0177373861658710e-01  1.2383986391260235e-01  8.7351026138335883e-02  1.0555295566819425e-01  7.2055109723020108e-02  8.6690551548616088e-02  1.2153580232978553e-01  9.8797270975937601e-02  6.8648868715434797e-02  7.7221182014346426e-02  1.0748945411802513e-01  8.2277040941682353e-02  1.1155888606447312e-01  8.3569415485542142e-02  1.1133250727944780e-01  8.1626717094112622e-02  1.0725466970967466e-01  5.6231708705459266e-02  1.4524935903189032e-01  7.7737026743055659e-02  1.0078417279124853e-01  1.3661981837335818e-01  1.2490909150088612e-01  9.1139998312445097e-02  1.6506153678095226e-01  8.8857458402362935e-02  1.1281512986318086e-01  1.5264965603349387e-01  1.3644393266113908e-01  9.7384391679191953e-02  1.1854852447199220e-01  1.5982133046153679e-01  1.3933965100110654e-01  1.8671102300711609e-01  1.5916034101330961e-01  1.1932919697845296e-01  1.4187828543487677e-01  9.9569742987396403e-02  1.1472904231361350e-01  1.5296237111824515e-01  1.2703775850879756e-01  1.6443289399639791e-01  1.3804070749152605e-01  1.0346260005736481e-01  1.1167156998485167e-01  1.4598516832301703e-01  1.1700839189660450e-01  1.5028013312774835e-01  1.1977160012399041e-01  9.0285654690682476e-02  9.0820686018955682e-02  1.1916909449174769e-01  6.5894880002320314e-02  8.8558114430512799e-02  1.1483034801640718e-01  8.1412410900156384e-02  1.5054612308212875e-01  1.4232595393835795e-01  1.0661808674695324e-01  1.3756280096533982e-01  1.8385896836452928e-01  1.9404360724927508e-01  1.8869629955170639e-01  9.5492326986516912e-02  4.1952435911846560e-02  7.2944016139596390e-02  5.7885539093105641e-02  5.4649112207850174e-02  2.0454008724813402e-01  9.1461164024022060e-02  9.5040608666204757e-02  1.2010447014062699e-01  7.3474287408987066e-02  2.0259613624824752e-01  1.8763367701144718e-01  9.0232169993369790e-02  1.6469523047276988e-01  1.4102809205651340e-01  5.5572461138777847e-02  8.1173483145195097e-02  5.8853748336847145e-02  2.0593399355691461e-01  2.3372378813807709e-01  2.2519531700640447e-01  7.9993588519960052e-02  9.4330432404747991e-02  6.4521607697089270e-02  4.3828344182003320e-02  4.5056439127360862e-02  6.4073982098728027e-02  2.8416089068583450e-02  3.0243444120794976e-02  6.4387710173307466e-02  5.8217162497601872e-02  7.8902772035987376e-02  2.8059266486744033e-02  4.2802687449626620e-02  5.4705921095609407e-02  6.0867831944255844e-02  3.9223658028366262e-02  4.2397741936504980e-02  4.1920313350731132e-02  1.9443532935022553e-01  2.0107986731658720e-01  1.9763727675299880e-01  2.0996651252331619e-01  2.0459269567712221e-01  2.0557995190533276e-01  2.2680275300534911e-01  8.3079374906371878e-02  7.3465594361945302e-02  2.2337866285553221e-01  4.3793138312275832e-02  8.4748241923137346e-02  2.1644648417830334e-01  2.0908378790061269e-01  4.0882412892883038e-02  2.4346493405703790e-02  2.1979969179300501e-01  2.4515070756923496e-01  2.3577525880579148e-01  2.6483543111235908e-01  2.2020338687635249e-01  2.5772780195605666e-01  4.5429619271076742e-02  3.3326115361347719e-02  2.2631934286738772e-01  7.8818114777584020e-02  8.1884888419301999e-02  1.9452933220036764e-01  7.5094541102645240e-02  4.6899459510475888e-02  5.0707257463953111e-02  4.0020848610691002e-02  2.6798156219962516e-01  2.3601665325347057e-01  2.3509736379072724e-01  2.3145048093961107e-01  1.9395926465904204e-01  2.3550301105267910e-01  1.9302762228923212e-01  1.9850064215663485e-01  2.1638760017580722e-01  2.0688143379132037e-01  2.3371421858469030e-01  2.1441963723593535e-01  1.9637763240262895e-01  2.1310330847751741e-01  1.8449294961968732e-01  2.2639773385117182e-01  2.7070785804933439e-01  2.6078280798925357e-01  2.1905738703329519e-01  2.1000760025672000e-01  2.4772974806023124e-01  2.3643658253264618e-01  2.7512701948904555e-01  1.6855155288133177e-02  2.6209247023912852e-01  2.7103024774307155e-01  2.2585767521801043e-02  2.3251497731419901e-01  1.8760036644488123e-01  2.2541213693809550e-01  2.3621996721170622e-02  1.6383420380092423e-01  2.2476774951520558e-02  2.6292151704778350e-02  4.3398320624418292e-02  2.3363478618890758e-02  4.2329136855850540e-02  2.7856927334414044e-01  2.4391772414289470e-01  2.4469287948862878e-01  2.3967102804000173e-01  2.0530718831710065e-01  2.0652043932882910e-01  2.6480008812134842e-01  2.2590293445225931e-01  2.0410704427478402e-01  1.3896631857040752e-02  1.5670251190439641e-01  2