<?xml version="1.0"?>
<VTKFile type="UnstructuredGrid"  version="0.1"  >
<UnstructuredGrid>
<Piece  NumberOfPoints="1256" NumberOfCells="2414">
<Points>
<DataArray  type="Float64"  NumberOfComponents="3"  format="ascii">0 0 0  0 1 0  1 1 0  1 0 0  1.1 -0.1 0  -0.1 -0.1 0  1.1 1.1 0  -0.1 1.1 0  0.5071766752913018 0.5178964210070971 0  0.6001094486169887 0.727953210606583 0  0 0.9499999999997918 0  0 0.8999999999995836 0  0 0.8499999999996529 0  0 0.7999999999999998 0  0 0.7500000000003466 0  0 0.7000000000006934 0  0 0.6500000000010401 0  0 0.6000000000013869 0  0 0.5500000000017335 0  0 0.5000000000020587 0  0 0.4500000000018723 0  0 0.4000000000016644 0  0 0.3500000000014564 0  0 0.3000000000012483 0  0 0.2500000000010403 0  0 0.2000000000008322 0  0 0.1500000000006241 0  0 0.100000000000416 0  0 0.05000000000020799 0  0.04999999999989965 0 0  0.09999999999981467 0 0  0.1499999999997036 0 0  0.1999999999995579 0 0  0.2499999999994121 0 0  0.2999999999992664 0 0  0.3499999999991206 0 0  0.3999999999989749 0 0  0.4499999999988292 0 0  0.4999999999986943 0 0  0.5499999999988151 0 0  0.5999999999989468 0 0  0.6499999999990784 0 0  0.69999999999921 0 0  0.7499999999993417 0 0  0.7999999999994734 0 0  0.8499999999996051 0 0  0.8999999999997368 0 0  0.9499999999998684 0 0  1 0.04999999999989965 0  1 0.09999999999981467 0  1 0.1499999999997036 0  1 0.1999999999995579 0  1 0.2499999999994121 0  1 0.2999999999992664 0  1 0.3499999999991206 0  1 0.3999999999989749 0  1 0.4499999999988292 0  1 0.4999999999986943 0  1 0.5499999999988151 0  1 0.5999999999989468 0  1 0.6499999999990784 0  1 0.69999999999921 0  1 0.7499999999993417 0  1 0.7999999999994734 0  1 0.8499999999996051 0  1 0.8999999999997368 0  1 0.9499999999998684 0  0.9499999999997918 1 0  0.8999999999995836 1 0  0.8499999999996529 1 0  0.7999999999999998 1 0  0.7500000000003466 1 0  0.7000000000006934 1 0  0.6500000000010401 1 0  0.6000000000013869 1 0  0.5500000000017335 1 0  0.5000000000020587 1 0  0.4500000000018723 1 0  0.4000000000016644 1 0  0.3500000000014564 1 0  0.3000000000012483 1 0  0.2500000000010403 1 0  0.2000000000008322 1 0  0.1500000000006241 1 0  0.100000000000416 1 0  0.05000000000020799 1 0  -0.1 1.05000000000004 0  -0.1 1.000000000000079 0  -0.1 0.9500000000001624 0  -0.1 0.9000000000003032 0  -0.1 0.850000000000444 0  -0.1 0.8000000000005848 0  -0.1 0.7500000000007256 0  -0.1 0.7000000000008665 0  -0.1 0.6500000000010508 0  -0.1 0.6000000000012352 0  -0.1 0.5500000000014196 0  -0.1 0.500000000001539 0  -0.1 0.4500000000014195 0  -0.1 0.4000000000013 0  -0.1 0.3500000000011588 0  -0.1 0.3000000000010178 0  -0.1 0.2500000000008986 0  -0.1 0.2000000000007579 0  -0.1 0.1500000000006174 0  -0.1 0.1000000000005272 0  -0.1 0.05000000000040083 0  -0.1 2.671196597248127e-13 0  -0.1 -0.0499999999998666 0  -0.0500000000000906 -0.1 0  -1.730560139634463e-13 -0.1 0  0.04999999999975802 -0.1 0  0.09999999999961506 -0.1 0  0.1499999999994613 -0.1 0  0.199999999999302 -0.1 0  0.2499999999991446 -0.1 0  0.2999999999990088 -0.1 0  0.3499999999988296 -0.1 0  0.3999999999986936 -0.1 0  0.4499999999985143 -0.1 0  0.4999999999984002 -0.1 0  0.5499999999985247 -0.1 0  0.5999999999986493 -0.1 0  0.6499999999987955 -0.1 0  0.6999999999989417 -0.1 0  0.7499999999990659 -0.1 0  0.7999999999992116 -0.1 0  0.8499999999993573 -0.1 0  0.8999999999994526 -0.1 0  0.949999999999584 -0.1 0  0.9999999999997226 -0.1 0  1.049999999999861 -0.1 0  1.1 -0.0500000000000906 0  1.1 -1.730560139634463e-13 0  1.1 0.04999999999975802 0  1.1 0.09999999999961506 0  1.1 0.1499999999994613 0  1.1 0.199999999999302 0  1.1 0.2499999999991446 0  1.1 0.2999999999990088 0  1.1 0.3499999999988296 0  1.1 0.3999999999986936 0  1.1 0.4499999999985143 0  1.1 0.4999999999984002 0  1.1 0.5499999999985247 0  1.1 0.5999999999986493 0  1.1 0.6499999999987955 0  1.1 0.6999999999989417 0  1.1 0.7499999999990659 0  1.1 0.7999999999992116 0  1.1 0.8499999999993573 0  1.1 0.8999999999994526 0  1.1 0.949999999999584 0  1.1 0.9999999999997226 0  1.1 1.049999999999861 0  1.05000000000004 1.1 0  1.000000000000079 1.1 0  0.9500000000001624 1.1 0  0.9000000000003032 1.1 0  0.850000000000444 1.1 0  0.8000000000005848 1.1 0  0.7500000000007256 1.1 0  0.7000000000008665 1.1 0  0.6500000000010508 1.1 0  0.6000000000012352 1.1 0  0.5500000000014196 1.1 0  0.500000000001539 1.1 0  0.4500000000014195 1.1 0  0.4000000000013 1.1 0  0.3500000000011588 1.1 0  0.3000000000010178 1.1 0  0.2500000000008986 1.1 0  0.2000000000007579 1.1 0  0.1500000000006174 1.1 0  0.1000000000005272 1.1 0  0.05000000000040083 1.1 0  2.671196597248127e-13 1.1 0  -0.0499999999998666 1.1 0  0.6230971635516984 0.7165441810934976 0  0.6445781516536185 0.7028439633275941 0  0.6643361822231111 0.6871657918465778 0  0.6819620729972137 0.6698282853364718 0  0.6976061845017081 0.6510236441779375 0  0.7113278485930447 0.6307483828623571 0  0.7230536821106708 0.6091134610691595 0  0.7327471452856483 0.5861466709716446 0  0.740130353389529 0.5623430710220703 0  0.7451321954152854 0.5377566648596503 0  0.747679038554523 0.5126341843867066 0  0.747767191652305 0.4872452174500619 0  0.7453941352661987 0.4618928196806601 0  0.7405632769979641 0.4368188667848222 0  0.7332958556517101 0.4123276017320922 0  0.7236265432427362 0.3888175481338636 0  0.7115584370138468 0.366408386135534 0  0.6973093687668231 0.3455269630078527 0  0.6809208932967424 0.3263065870454316 0  0.6627710445979164 0.3090512542382585 0  0.6433919017212558 0.2940042588301045 0  0.6226372071785961 0.2808866886627451 0  0.6008279125768522 0.2699163260381775 0  0.5781843351571933 0.2611227631059699 0  0.5546695014767572 0.2544382082627801 0  0.5304461500129947 0.2501335377788031 0  0.5056934886461667 0.2484002247872746 0  0.4804633662807425 0.249276191141173 0  0.4553681961896228 0.2527270198828952 0  0.4305839715680867 0.2587897415880035 0  0.4064563388899399 0.2672953082545085 0  0.3832652023576693 0.2783108560812116 0  0.3612879045243497 0.291540464469817 0  0.3407631126994222 0.306844754246191 0  0.3219172937939651 0.3240347619757227 0  0.3049325892286059 0.3428740067884593 0  0.2899136698724175 0.3631488661618849 0  0.2774259785666185 0.3843849423623415 0  0.2672570307482315 0.4065688290270549 0  0.2595243384983342 0.4292222606871609 0  0.2541848662918395 0.4520391057659434 0  0.2510583520347336 0.474499400519126 0  0.2498606752246609 0.495536611414798 0  0.2504011649901388 0.5151203553877628 0  0.2524710234672137 0.5350048876524445 0  0.2565611943803149 0.5570594114563242 0  0.2627323723495887 0.5796057630300376 0  0.2712210596967445 0.6019750555586234 0  0.2824050569776638 0.6239109777571926 0  0.2960965294916706 0.6448278937284607 0  0.3124268393878644 0.664549115445587 0  0.3308956697496856 0.6826689534052338 0  0.3512646673621383 0.6989744654495361 0  0.3732669382611273 0.7131905243599945 0  0.3967003312273276 0.7251032041101229 0  0.4212413297011364 0.7345209740266903 0  0.4466213037012051 0.7415442020080328 0  0.4724647170618608 0.7460267741740351 0  0.4986712849410988 0.7477949835602992 0  0.5248383138812126 0.7468569897288425 0  0.5506105922730193 0.7431793036628564 0  0.5758302976711059 0.7368628586709027 0  0.2960233334301617 0.5951979069582055 0  0.2913203038183751 0.4067035554842265 0  0.689408907806853 0.632015748580255 0  0.7203211679312204 0.5478854773611823 0  0.6053714863342813 0.7011550256325102 0  0.32929724485762 0.350653009091496 0  0.3849433250742632 0.3065102616247619 0  0.4503414179816422 0.2788040395782495 0  0.5417701336396022 0.2730547011354768 0  0.6536326908637885 0.3293771120608134 0  0.338008395034852 0.6579214777538392 0  0.3941827842363864 0.6957918142228716 0  0.7248498788900426 0.4774376938544224 0  0.7090626698685 0.4081100809301378 0  0.2706857790097152 0.4699092405869912 0  0.5367705860442318 0.721401893869663 0  0.4635448851221478 0.7202506788413831 0  0.6002787740561689 0.293260971572649 0  0.2725026004591632 0.5398737313215251 0  0.6856898475938431 0.3690408487235345 0  0.4957688621892504 0.2694590672469017 0  0.6448499549197879 0.6786846435646287 0  0.7099586027004391 0.5914374471144858 0  0.2657304999966419 0.5068302404376305 0  0.4062490031699312 0.2943049822502634 0  0.4066308576790961 0.3217103467553758 0  0.3874157823931263 0.3345540477620265 0  0.4094347183387801 0.3495991741367578 0  0.3891902035818867 0.3636911678308774 0  0.4095531938360618 0.3769413055265233 0  0.4356642362743498 0.3668305139136552 0  0.391572058572407 0.3948369645773934 0  0.4226064113617488 0.4135056529221809 0  0.3922357640530467 0.4346673315043748 0  0.4602494592217944 0.407374767185489 0  0.4764988123448405 0.3601705643680503 0  0.5023657534256338 0.4069917868269328 0  0.5225143004022111 0.3648075538456847 0  0.5456641967622615 0.4082595623308243 0  0.5643558338634234 0.3681678460344213 0  0.5880381329355713 0.4094206813999659 0  0.3690938419730022 0.4112286281409823 0  0.3628111968163022 0.447333150534816 0  0.3922975193101571 0.4771902680512355 0  0.3635151075812001 0.4935346642802619 0  0.3897072811371274 0.5196294029863231 0  0.3600792588338481 0.5351818226702232 0  0.3841038150581179 0.5610089935268036 0  0.33633653755849 0.5097178007935377 0  0.3562791973578641 0.5755531717657496 0  0.3757670334091505 0.5977819468585938 0  0.4048493237774615 0.5906123117541379 0  0.6030006099093047 0.3744929462072681 0  0.6280507647135407 0.4039328851323118 0  0.6101367757624852 0.4395572577255215 0  0.6463599594524904 0.4337021577698179 0  0.6354913074248215 0.4703376855587516 0  0.5431659837598012 0.3424965039533048 0  0.4040574111561547 0.6218391716038947 0  0.4301319820172362 0.6164821682073449 0  0.5892647890875634 0.4780392626867977 0  0.6137692130442617 0.5089882552803189 0  0.6496350650478677 0.4999134156384388 0  0.6444753507879802 0.5393200687739637 0  0.5964871951072259 0.5488254184104934 0  0.6240634578579207 0.5823498453833412 0  0.5807849459269455 0.5900418749192995 0  0.6077065929548708 0.6246006993655935 0  0.5664390442932015 0.6365566157069139 0  0.541465926824
[...]
<PointData  Scalars="v"> 
<DataArray  type="Float64"  Name="v"  format="ascii">0.0000000000000000e+00  0.0000000000000000e+00  0.0000000000000000e+00  0.0000000000000000e+00  0.0000000000000000e+00  0.0000000000000000e+00  0.0000000000000000e+00  0.0000000000000000e+00  3.9018734767909681e-05  3.7361820861843467e-05  0.0000000000000000e+00  0.0000000000000000e+00  0.0000000000000000e+00  0.0000000000000000e+00  0.0000000000000000e+00  0.0000000000000000e+00  0.0000000000000000e+00  0.0000000000000000e+00  0.0000000000000000e+00  0.0000000000000000e+00  0.0000000000000000e+00  0.0000000000000000e+00  0.0000000000000000e+00  0.0000000000000000e+00  0.0000000000000000e+00  0.0000000000000000e+00  0.0000000000000000e+00  0.0000000000000000e+00  0.0000000000000000e+00  0.0000000000000000e+00  0.0000000000000000e+00  0.0000000000000000e+00  0.0000000000000000e+00  0.0000000000000000e+00  0.0000000000000000e+00  0.0000000000000000e+00  0.0000000000000000e+00  0.0000000000000000e+00  0.0000000000000000e+00  0.0000000000000000e+00  0.0000000000000000e+00  0.0000000000000000e+00  0.0000000000000000e+00  0.0000000000000000e+00  0.0000000000000000e+00  0.0000000000000000e+00  0.0000000000000000e+00  0.0000000000000000e+00  0.0000000000000000e+00  0.0000000000000000e+00  0.0000000000000000e+00  0.0000000000000000e+00  0.0000000000000000e+00  0.0000000000000000e+00  0.0000000000000000e+00  0.0000000000000000e+00  0.0000000000000000e+00  0.0000000000000000e+00  0.0000000000000000e+00  0.0000000000000000e+00  0.0000000000000000e+00  0.0000000000000000e+00  0.0000000000000000e+00  0.0000000000000000e+00  0.0000000000000000e+00  0.0000000000000000e+00  0.0000000000000000e+00  0.0000000000000000e+00  0.0000000000000000e+00  0.0000000000000000e+00  0.0000000000000000e+00  0.0000000000000000e+00  0.0000000000000000e+00  0.0000000000000000e+00  0.0000000000000000e+00  0.0000000000000000e+00  0.0000000000000000e+00  0.0000000000000000e+00  0.0000000000000000e+00  0.0000000000000000e+00  0.0000000000000000e+00  0.0000000000000000e+00  0.0000000000000000e+00  0.0000000000000000e+00  0.0000000000000000e+00  0.0000000000000000e+00  0.0000000000000000e+00  0.0000000000000000e+00  0.0000000000000000e+00  0.0000000000000000e+00  0.0000000000000000e+00  0.0000000000000000e+00  0.0000000000000000e+00  0.0000000000000000e+00  0.0000000000000000e+00  0.0000000000000000e+00  0.0000000000000000e+00  0.0000000000000000e+00  0.0000000000000000e+00  0.0000000000000000e+00  0.0000000000000000e+00  0.0000000000000000e+00  0.0000000000000000e+00  0.0000000000000000e+00  0.0000000000000000e+00  0.0000000000000000e+00  0.0000000000000000e+00  0.0000000000000000e+00  0.0000000000000000e+00  0.0000000000000000e+00  0.0000000000000000e+00  0.0000000000000000e+00  0.0000000000000000e+00  0.0000000000000000e+00  0.0000000000000000e+00  0.0000000000000000e+00  0.0000000000000000e+00  0.0000000000000000e+00  0.0000000000000000e+00  0.0000000000000000e+00  0.0000000000000000e+00  0.0000000000000000e+00  0.0000000000000000e+00  0.0000000000000000e+00  0.0000000000000000e+00  0.0000000000000000e+00  0.0000000000000000e+00  0.0000000000000000e+00  0.0000000000000000e+00  0.0000000000000000e+00  0.0000000000000000e+00  0.0000000000000000e+00  0.0000000000000000e+00  0.0000000000000000e+00  0.0000000000000000e+00  0.0000000000000000e+00  0.0000000000000000e+00  0.0000000000000000e+00  0.0000000000000000e+00  0.0000000000000000e+00  0.0000000000000000e+00  0.0000000000000000e+00  0.0000000000000000e+00  0.0000000000000000e+00  0.0000000000000000e+00  0.0000000000000000e+00  0.0000000000000000e+00  0.0000000000000000e+00  0.0000000000000000e+00  0.0000000000000000e+00  0.0000000000000000e+00  0.0000000000000000e+00  0.0000000000000000e+00  0.0000000000000000e+00  0.0000000000000000e+00  0.0000000000000000e+00  0.0000000000000000e+00  0.0000000000000000e+00  0.0000000000000000e+00  0.0000000000000000e+00  0.0000000000000000e+00  0.0000000000000000e+00  0.0000000000000000e+00  0.0000000000000000e+00  0.0000000000000000e+00  0.0000000000000000e+00  0.0000000000000000e+00  0.0000000000000000e+00  0.0000000000000000e+00  0.0000000000000000e+00  0.0000000000000000e+00  0.0000000000000000e+00  0.0000000000000000e+00  0.0000000000000000e+00  0.0000000000000000e+00  0.0000000000000000e+00  0.0000000000000000e+00  0.0000000000000000e+00  3.7466188135085903e-05  3.7562733950157761e-05  3.7662394160628750e-05  3.7722592666500426e-05  3.7789784584437146e-05  3.7823379641476825e-05  3.7848031877495402e-05  3.7847957680746641e-05  3.7799670893440840e-05  3.7784471514038693e-05  3.7774750865832057e-05  3.7768213902079936e-05  3.7758544091396896e-05  3.7756103246078498e-05  3.7748288762050836e-05  3.7729169083778321e-05  3.7709881391599314e-05  3.7675326449252702e-05  3.7620902397016915e-05  3.7588166546280361e-05  3.7546999144798760e-05  3.7489491732582841e-05  3.7410874984381989e-05  3.7340354945231774e-05  3.7246062997263116e-05  3.7146138872845033e-05  3.7091665308093666e-05  3.7053624424925644e-05  3.6986938977456194e-05  3.7001803225211800e-05  3.7007345467666769e-05  3.7033169447443208e-05  3.7081184498989220e-05  3.7110998438423216e-05  3.7143773777296062e-05  3.7163915033710162e-05  3.7175903332274578e-05  3.7169192422664184e-05  3.7178118626168169e-05  3.7183127143750978e-05  3.7194513059839022e-05  3.7175418708964963e-05  3.7170064036053483e-05  3.7130791932196827e-05  3.7117437099576135e-05  3.7068832797192831e-05  3.7024484979563999e-05  3.6963354409464685e-05  3.6951306669310462e-05  3.6964640621793711e-05  3.6996003842574997e-05  3.7035280053242363e-05  3.7049427792704476e-05  3.7045129015170626e-05  3.7036677374865267e-05  3.7049173307224905e-05  3.7032362705989775e-05  3.7036658731273782e-05  3.7088977569836456e-05  3.7147388353390477e-05  3.7218447729948740e-05  3.7267233305573422e-05  3.7721379083088786e-05  3.7796249407496055e-05  3.8184583677693586e-05  3.8287094161554010e-05  3.8019591032318142e-05  3.7812078517045082e-05  3.7803276498267570e-05  3.7799289403576938e-05  3.7879000373182897e-05  3.8117018305506485e-05  3.7701938490190180e-05  3.7750860226696356e-05  3.8274669553644414e-05  3.8237740528640626e-05  3.7725681912480017e-05  3.7875741638866929e-05  3.7783277442450335e-05  3.8032106878216460e-05  3.7675583380317057e-05  3.8233928123148152e-05  3.7809430928082555e-05  3.8095024384957094e-05  3.8256207042721801e-05  3.7655847947457832e-05  3.7786225221351403e-05  3.8001878192174529e-05  3.8006629610109513e-05  3.8172008552470933e-05  3.8178502460013998e-05  3.8315757040195724e-05  3.8353023118960065e-05  3.8326210534062696e-05  3.8573593271467805e-05  3.8506356358577047e-05  3.8708795712467219e-05  3.8441392840585555e-05  3.8809251863146916e-05  3.8546601035844453e-05  3.8819093411047698e-05  3.8550077718972508e-05  3.8748808106323546e-05  3.8276642341598278e-05  3.8355728657241303e-05  3.8595858543138952e-05  3.8417708150370939e-05  3.8546428960541729e-05  3.8310882714716708e-05  3.8398354431474208e-05  3.8200881437444043e-05  3.8167503593497661e-05  3.8192813120750286e-05  3.8382012215209543e-05  3.8533461648322236e-05  3.8589191908020697e-05  3.8783476821760052e-05  3.8615411068277997e-05  3.8726351930996967e-05  3.8384828140649789e-05  3.8202119335722081e-05  3.8371814703867949e-05  3.8928323784771337e-05  3.8849785801285004e-05  3.8673400282288497e-05  3.8673715235022928e-05  3.8853013535606611e-05  3.8637396641780275e-05  3.8742638573147908e-05  3.8478039172443345e-05  3.8464893641150713e-05  3.8719668338012076e-05  3.8438053361234505e-05  3.8471794810046973e-05  3.8612185507633854e-05  3.8303346629190421e-05  3.8173980058582753e-05  3.8742544961027818e-05  3.8146603116609460e-05  3.8059949663576817e-05  3.8006546048400535e-05  3.8009334523729343e-05  3.8461804003351285e-05  3.8091366934265373e-05  3.8693721672145644e-05  3.7990870665742852e-05  3.8325063272980439e-05  3.8019530564584884e-05  3.7970023897466157e-05  3.7843444424036055e-05  3.8542608517494665e-05  3.8500530323524557e-05  3.8533961179767843e-05  3.8420691137678441e-05  3.8463482657552415e-05  3.8562990260305289e-05  3.8406221377389854e-05  3.8328663800658852e-05  3.8334496874977018e-05  3.7981853144330837e-05  3.8292813083996364e-05  3.8168082113947177e-05  3.8212254840875317e-05  3.8112299937712908e-05  3.8372352896190783e-05  3.8233558869854344e-05  3.8339380372938042e-05  3.8450339786012050e-05  3.8237814066343273e-05  3.8197540571440936e-05  3.8053248605330878e-05  3.8021893617608209e-05  3.7927226024521708e-05  3.8014953225183322e-05  3.7867616539846542e-05  3.7925796144998099e-05  3.8122706995157749e-05  3.7907040954628579e-05  3.7882337810361241e-05  3.8221731103844110e-05  3.8858040748349241e-05  3.8167809365279193e-05  3.8493182671156730e-05  3.8950694817845198e-05  3.8337976046614600e-05  3.8064045695885606e-05  3.7933141334177805e-05  3.8148612306753689e-05  3.8252707691159315e-05  3.8161146421464840e-05  3.7929369404153434e-05  3.8984016149099790e-05  3.7869575569570852e-05  3.7803195051899949e-05  3.8008437865872534e-05  3.7929798611268284e-05  3.7811881620518323e-05  3.8905469631417801e-05  3.7740871965158221e-05  3.7703885359141965e-05  3.7821214900772378e-05  3.8258794251701055e-05  3.8263713434509287e-05  3.7799526160792685e-05  3.7981022365897425e-05  3.8250650088702299e-05  3.8194844443074481e-05  3.8272301958711049e-05  3.8421995740799239e-05  3.8396225110889717e-05  3.7798563598085071e-05  3.7878553201159007e-05  3.8081187301207323e-05  3.8232493223939944e-05  3.7782288073058692e-05  3.7644473026398088e-05  3.8513089760778368e-05  3.8053456347944178e-05  3.7960132852455181e-05  3.7771868103714111e-05  3.8307637335511302e-05  3.8200480221158446e-05  3.8372566661617550e-05  3.7805767330723011e-05  3.8262360470014800e-05  3.8641587891517712e-05  3.8437144297000894e-05  3.7843939977348287e-05  3.7879793982123634e-05  3.7936661069096901e-05  3.8070861024985122e-05  3.7906272807100341e-05  3.8064508543010992e-05  3.8061706118610828e-05  3.8923050734291497e-05  3.8138143543921337e-05  3.8235833087352015e-05  3.7640519460718376e-05  3.8130956539353987e-05  3.8023083174172226e-05  3.7867279160908875e-05  3.8659122481536710e-05  3.8916518309385230e-05  3.7680785983831823e-05  3.8244685171334940e-05  3.7769800274309870e-05  3.8001796013642402e-05  3.8598965685771296e-05  3.7724652690525657e-05  3.8870186036712469e-05  3.8069273869021297e-05  3.8351231990772295e-05  3.8119011786793925e-05  3.8986084688344718e-05  3.7953457301103588e-05  3.7976269470548452e-05  3.8388518050806611e-05  3.7795242101633811e-05  3.7717229466913832e-05  3.8323473100179047e-05  3.8034538643205941e-05  3.7832215785791158e-05  3.7683766485561990e-05  3.7584820028521030e-05  3.8243763484717931e-05  3.8472087399526147e-05  3.7832122989048937e-05  3.7756342577275489e-05  3.8353748496115786e-05  3.8013925879964457e-05  3.8170809015727147e-05  3.7931057194572347e-05  3.8029079698832852e-05  3.8420889257632376e-05  3.8688601235435251e-05  3.8060031872962431e-05  3.7725808874696405e-05  3.8145166079634022e-05  3.7791126895870959e-05  3.7871763817628948e-05  3.9025427576432803e-05  3.8154271252327797e-05  3.8193203876689563e-05  3.7567924141234147e-05  3.8866678433139816e-05  3.8194496118625173e-05  3.7975634843233370e-05  3.8342534825353743e-05  3.8269539876866420e-05  3.8265097113215412e-05  3.8353555626944604e-05  3.8326976236255949e-05  3.7912959889471299e-05  3.8372528540044703e-05  3.8304633942002731e-05  3.8126596162109385e-05  3.7918205886578252e-05  3.8346209082823654e-05  3.8105910384477150e-05  3.7980823591088454e-05  3.8222532810872700e-05  3.8346622225052497e-05  3.8518496608506853e-05  3.8364072173585495e-05  3.7607858736276249e-05  3.7826659581965170e-05  3.8140945025850161e-05  3.8294863695289031e-05  3.8888167305288748e-05  3.8408803780074165e-05  3.8311939622597814e-05  3.8181395312917870e-05  3.8548429182176415e-05  3.8079710388145219e-05  3.8150009532792428e-05  3.8177643306410404e-05  3.8579094879990784e-05  3.8126836564179441e-05  3.5673966806741919e-05  3.5920889980673361e-05  3.6235265550545096e-05  3.6234911390257696e-05  3.6570028729771340e-05  3.5458769921132394e-05  3.5591525144860565e-05  3.5067966523491682e-05  3.5566561356358178e-05  3.6354268541244463e-05  3.6173023901294464e-05  3.6223014966181013e-05  3.6914777347393743e-05  3.5734217560979269e-05  3.5671056117136956e-05  2.0022046980520624e-06  2.6880328953329953e-06  3.6635899324350752e-05  3.5553727660955284e-05  3.3292955632889561e-06  4.0230732199620202e-06  3.7777424714555833e-06  3.6693751358157111e-05  3.6466485361060052e-06  4.0431474089410107e-06  3.5945008499194901e-05  3.5479333459421117e-05  5.9010767050727320e-06  3.5317214327305457e-05  2.6933434115340476e-06  4.2670618745651249e-06  3.5614733872717554e-05  3.5568628576480507e-05  3.5815476386159668e-05  5.8113241011712233e-06  5.5814213557624678e-06  7.4944165414165763e-06  5.8218814981402057e-06  3.4867238103137572e-05  6.0319965695608889e-06  6.6937709319559172e-06  5.8148014251255805e-06  7.1980763297273029e-06  8.2673634912637089e-06  3.4501433342022622e-06  1.9091566522750919e-06  1.3329523070302951e-06  3.0561350030066978e-06  2.2958370799912497e-06  8.7286750060605918e-06  9.2601217429935730e-06  1.1277668382753609e-06  1.9216297572657280e-06  2.2448656719696016e-06  2.2547225070433890e-06  3.4687019755968585e-05  3.1537296299556647e-05  3.0993598507685110e-05  3.1645835309902450e-05  2.7195765181324000e-05  2.6172618222673649e-05  2.1926747489624861e-05  2.9658589292396720e-05  2.5193803863437960e-05  2.7588474630448541e-05  2.2630803721545597e-05  2.2553579377818382e-05  2.5708842869202424e-05  1.9520525145934303e-05  2.1737073672183492e-05  2.6808758366888803e-05  2.4057549460729340e-05  2.7920564874771582e-05  2.4049423970729560e-05  1.9655258946943316e-05  2.0148585568226826e-05  2.5233139258287929e-05  2.0755429242554017e-05  2.4987671996056152e-05  2.0809520252277629e-05  2.5205283813834942e-05  2.0414623948962624e-05  1.6613977706236767e-05  2.4655303585995705e-05  1.9502060113822978e-05  2.2743214836638214e-05  1.7879107478393464e-05  2.0778108278773338e-05  1.4909090779360458e-05  1.6336135938814724e-05  1.3143485304949516e-05  2.5692834351519329e-05  2.4325527823766829e-05  1.8609323925282140e-05  2.1487467714603151e-05  3.1249639792795564e-05  2.9016900696809076e-05  2.8942713048278990e-05  2.7882109679470819e-05  1.6020648298792100e-05  1.8854443715326328e-05  2.4438147944361974e-05  2.1787543837692473e-05  2.7283958465752152e-05  2.4937800550146592e-05  1.8243891278719930e-05  2.1125325862554925e-05  2.7483783786845350e-05  2.4918267858113325e-05  1.8408179869270395e-05  2.1238657574912218e-05  2.6662883971802115e-05  2.3295956109900124e-05  2.7806862299119205e-05  2.5215628842307357e-05  2.9153007084859765e-05  2.5393443554492424e-05  2.8798316671656817e-05  2.5076736350550218e-05  2.8461007269275155e-05  2.3955243450009677e-05  2.6720738498843595e-05  2.2217197873449692e-05  2.4648598162391098e-05  1.9937359939415471e-05  2.2006309358188222e-05  1.7478635442883301e-05  1.5176998300090077e-05  2.0935925864053982e-05  2.7184415605420012e-05  2.3634750990339412e-05  1.8786712182075045e-05  2.0196141476373935e-05  2.6436798739573891e-05  2.1521703662484396e-05  2.6682608573833678e-05  2.2134137583709398e-05  1.2796785645207840e-05  1.4969945986502020e-05  2.7062012575227822e-05  2.2305641099038627e-05  2.7988481134159830e-05  2.2371899071580958e-05  2.8188173874466520e-05  2.2280820702755413e-05  2.7951919645217411e-05  2.1813604664417643e-05  2.6571876201549226e-05  2.1029848751960456e-05  2.6499936583266100e-05  2.0338850654457411e-05  2.5303299166191533e-05  1.8968088537220638e-05  2.2805414635640749e-05  1.7025384095865994e-05  2.0385244405498612e-05  1.4874948937643191e-05  1.7697523576138981e-05  2.3062860108619802e-05  1.9839938661253614e-05  1.4861073416121229e-05  1.6356759287195926e-05  2.1023338522012541e-05  1.6995525605496178e-05  2.1339860138482819e-05  1.6865056375996968e-05  2.0827737487208213e-05  1.6079071613550745e-05  1.9594835581067458e-05  1.2605278161409905e-05  2.5472315594266723e-05  1.4805913042295085e-05  1.7843264822233080e-05  2.3086219630024287e-05  2.0692396113477317e-05  1.6023332535729315e-05  2.8185760247289678e-05  1.5171010057676084e-05  1.8095955507912330e-05  2.3608475286844988e-05  2.0648985218124581e-05  1.4974478086629302e-05  1.7415725522719615e-05  2.3280710885189918e-05  1.9978258925332612e-05  2.6404434809897404e-05  2.2628926768195604e-05  1.6838320460880716e-05  2.0173769725182570e-05  1.3920293785663586e-05  1.6371294382478040e-05  2.1908077488037658e-05  1.8500759653981377e-05  2.3798939416115598e-05  2.0497820260404325e-05  1.5355386497363890e-05  1.6963888961626773e-05  2.1892121979739951e-05  1.7964885447579237e-05  2.2675533767769641e-05  1.8506517541788226e-05  1.4177485391552350e-05  1.4361871832048404e-05  1.8512520635987842e-05  1.0607440134297071e-05  1.4124452788981848e-05  1.8037847669466558e-05  1.2379229653892662e-05  2.2768956647880791e-05  2.1908271797813546e-05  1.7222204667675594e-05  2.1797775555321077e-05  2.6722496785103800e-05  2.7267046920083726e-05  2.7298210680789097e-05  1.6904723495650542e-05  1.0632060390470549e-05  1.0694671961623356e-05  1.2288238095752287e-05  8.2638356618532960e-06  3.1099575275253800e-05  1.9945410903470449e-05  1.6137669483931087e-05  2.0139143975221568e-05  1.2401354135445429e-05  3.1147291482248208e-05  2.7050389137053655e-05  1.6873872749867743e-05  2.5507492465134520e-05  2.3385425473523144e-05  1.1573509370916115e-05  1.1828268718018898e-05  9.1225544867230553e-06  2.8832198081394699e-05  3.1429923555189322e-05  3.0512032355624634e-05  1.1168980106749407e-05  1.7213081134855225e-05  1.0276232636918223e-05  7.1454370824962095e-06  7.3943418751842458e-06  1.3832316036339430e-05  4.7481473928853352e-06  8.4995921009487485e-06  8.7346026872780219e-06  1.4441478409478173e-05  1.3506874165266675e-05  4.7582914315880914e-06  7.0565075015548660e-06  1.0675300546006973e-05  1.1868195127095805e-05  8.2169038648155645e-06  8.9201574736284222e-06  6.7067808656538284e-06  3.0848357033186775e-05  3.0759672530625714e-05  3.0111282432554713e-05  3.2204168913059109e-05  3.1786647627986473e-05  2.8905581275798533e-05  3.0832767001302293e-05  1.7300775398368469e-05  1.6008018769814892e-05  3.0737499641645339e-05  9.7293047342165725e-06  1.7804308696059787e-05  3.2034789766679197e-05  3.1860923755142512e-05  8.1348800545648690e-06  4.2576257673723596e-06  3.0616136419539828e-05  3.2599027782114531e-05  3.1771486902298412e-05  3.3962236355280363e-05  3.0470156406660333e-05  3.3616542036127054e-05  6.5919374106126533e-06  4.9987252270299708e-06  3.0947056335657399e-05  1.4867387879946259e-05  1.3876390880267172e-05  3.0117543405921836e-05  1.5715668140073749e-05  1.0279750902694077e-05  1.0591039357332235e-05  9.4071721513993114e-06  3.6248654169889180e-05  3.4104707494322659e-05  3.4245467786778688e-05  3.3625688230206729e-05  3.0812201357191387e-05  3.4387679531447958e-05  3.1050253736565649e-05  3.1437000713166597e-05  3.2064708360312169e-05  2.9278254955359616e-05  3.1865689173984706e-05  3.0447541382013697e-05  2.9304957144615867e-05  3.0372449242736195e-05  2.7152144716195889e-05  3.2106426350387504e-05  3.5913451807242233e-05  3.5480220646166329e-05  3.2376955445138652e-05  3.1500632174527671e-05  3.4494964780236026e-05  3.3671556859511983e-05  3.5858201247062398e-05  3.0340817341700879e-06  3.5148544514035555e-05  3.5979662772935752e-05  6.5136227042245035e-06  3.1759627665567509e-05  2.7016995458203742e-05  3.0719643021223231e-05  5.3456365291805357e-06  2.6344752113470713e-05  5.2713684939862945e-06  6.0522875807511614e-06  9.1389199376984003e-06  5.4438492476355363e-06  8.9235616949816432e-06  3.5987936799055192e-05  3.3805956610607438e-05  3.3539759031362121e-05  3.2872790174955781e-05  3.0420848488824547e-05  3.0907626324003777e-05  3.4590463044026996e-05  3.1466943268758417e-05  2.9896052754250244e-05  4.6960782503430665e-06  2.3558462573762992e-05  3