<?xml version="1.0"?>
<VTKFile type="UnstructuredGrid"  version="0.1"  >
<UnstructuredGrid>
<Piece  NumberOfPoints="1078" NumberOfCells="2058">
<Points>
<DataArray  type="Float64"  NumberOfComponents="3"  format="ascii">0 0 0  0 1 0  1 1 0  1 0 0  1.1 -0.1 0  -0.1 -0.1 0  1.1 1.1 0  -0.1 1.1 0  0.5176637492781461 0.5863822883223819 0  0 0.9499999999997918 0  0 0.8999999999995836 0  0 0.8499999999996529 0  0 0.7999999999999998 0  0 0.7500000000003466 0  0 0.7000000000006934 0  0 0.6500000000010401 0  0 0.6000000000013869 0  0 0.5500000000017335 0  0 0.5000000000020587 0  0 0.4500000000018723 0  0 0.4000000000016644 0  0 0.3500000000014564 0  0 0.3000000000012483 0  0 0.2500000000010403 0  0 0.2000000000008322 0  0 0.1500000000006241 0  0 0.100000000000416 0  0 0.05000000000020799 0  0.04999999999989965 0 0  0.09999999999981467 0 0  0.1499999999997036 0 0  0.1999999999995579 0 0  0.2499999999994121 0 0  0.2999999999992664 0 0  0.3499999999991206 0 0  0.3999999999989749 0 0  0.4499999999988292 0 0  0.4999999999986943 0 0  0.5499999999988151 0 0  0.5999999999989468 0 0  0.6499999999990784 0 0  0.69999999999921 0 0  0.7499999999993417 0 0  0.7999999999994734 0 0  0.8499999999996051 0 0  0.8999999999997368 0 0  0.9499999999998684 0 0  1 0.04999999999989965 0  1 0.09999999999981467 0  1 0.1499999999997036 0  1 0.1999999999995579 0  1 0.2499999999994121 0  1 0.2999999999992664 0  1 0.3499999999991206 0  1 0.3999999999989749 0  1 0.4499999999988292 0  1 0.4999999999986943 0  1 0.5499999999988151 0  1 0.5999999999989468 0  1 0.6499999999990784 0  1 0.69999999999921 0  1 0.7499999999993417 0  1 0.7999999999994734 0  1 0.8499999999996051 0  1 0.8999999999997368 0  1 0.9499999999998684 0  0.9499999999997918 1 0  0.8999999999995836 1 0  0.8499999999996529 1 0  0.7999999999999998 1 0  0.7500000000003466 1 0  0.7000000000006934 1 0  0.6500000000010401 1 0  0.6000000000013869 1 0  0.5500000000017335 1 0  0.5000000000020587 1 0  0.4500000000018723 1 0  0.4000000000016644 1 0  0.3500000000014564 1 0  0.3000000000012483 1 0  0.2500000000010403 1 0  0.2000000000008322 1 0  0.1500000000006241 1 0  0.100000000000416 1 0  0.05000000000020799 1 0  -0.1 1.05000000000004 0  -0.1 1.000000000000079 0  -0.1 0.9500000000001624 0  -0.1 0.9000000000003032 0  -0.1 0.850000000000444 0  -0.1 0.8000000000005848 0  -0.1 0.7500000000007256 0  -0.1 0.7000000000008665 0  -0.1 0.6500000000010508 0  -0.1 0.6000000000012352 0  -0.1 0.5500000000014196 0  -0.1 0.500000000001539 0  -0.1 0.4500000000014195 0  -0.1 0.4000000000013 0  -0.1 0.3500000000011588 0  -0.1 0.3000000000010178 0  -0.1 0.2500000000008986 0  -0.1 0.2000000000007579 0  -0.1 0.1500000000006174 0  -0.1 0.1000000000005272 0  -0.1 0.05000000000040083 0  -0.1 2.671196597248127e-13 0  -0.1 -0.0499999999998666 0  -0.0500000000000906 -0.1 0  -1.730560139634463e-13 -0.1 0  0.04999999999975802 -0.1 0  0.09999999999961506 -0.1 0  0.1499999999994613 -0.1 0  0.199999999999302 -0.1 0  0.2499999999991446 -0.1 0  0.2999999999990088 -0.1 0  0.3499999999988296 -0.1 0  0.3999999999986936 -0.1 0  0.4499999999985143 -0.1 0  0.4999999999984002 -0.1 0  0.5499999999985247 -0.1 0  0.5999999999986493 -0.1 0  0.6499999999987955 -0.1 0  0.6999999999989417 -0.1 0  0.7499999999990659 -0.1 0  0.7999999999992116 -0.1 0  0.8499999999993573 -0.1 0  0.8999999999994526 -0.1 0  0.949999999999584 -0.1 0  0.9999999999997226 -0.1 0  1.049999999999861 -0.1 0  1.1 -0.0500000000000906 0  1.1 -1.730560139634463e-13 0  1.1 0.04999999999975802 0  1.1 0.09999999999961506 0  1.1 0.1499999999994613 0  1.1 0.199999999999302 0  1.1 0.2499999999991446 0  1.1 0.2999999999990088 0  1.1 0.3499999999988296 0  1.1 0.3999999999986936 0  1.1 0.4499999999985143 0  1.1 0.4999999999984002 0  1.1 0.5499999999985247 0  1.1 0.5999999999986493 0  1.1 0.6499999999987955 0  1.1 0.6999999999989417 0  1.1 0.7499999999990659 0  1.1 0.7999999999992116 0  1.1 0.8499999999993573 0  1.1 0.8999999999994526 0  1.1 0.949999999999584 0  1.1 0.9999999999997226 0  1.1 1.049999999999861 0  1.05000000000004 1.1 0  1.000000000000079 1.1 0  0.9500000000001624 1.1 0  0.9000000000003032 1.1 0  0.850000000000444 1.1 0  0.8000000000005848 1.1 0  0.7500000000007256 1.1 0  0.7000000000008665 1.1 0  0.6500000000010508 1.1 0  0.6000000000012352 1.1 0  0.5500000000014196 1.1 0  0.500000000001539 1.1 0  0.4500000000014195 1.1 0  0.4000000000013 1.1 0  0.3500000000011588 1.1 0  0.3000000000010178 1.1 0  0.2500000000008986 1.1 0  0.2000000000007579 1.1 0  0.1500000000006174 1.1 0  0.1000000000005272 1.1 0  0.05000000000040083 1.1 0  2.671196597248127e-13 1.1 0  -0.0499999999998666 1.1 0  0.5573080708638114 0.5770893516447025 0  0.5929430254450224 0.5511275063060953 0  0.6076690968397881 0.5099843725047225 0  0.611619255706499 0.4698780530739692 0  0.6111463172967536 0.4305704829900071 0  0.6064388210675838 0.3918076634126201 0  0.5972081486834177 0.3536523560729607 0  0.5824622590927878 0.3167199921363733 0  0.5597643115939563 0.2829897722188577 0  0.5259406821222506 0.2599824666506884 0  0.4873471055575341 0.255833206180714 0  0.4506100840654131 0.2619263978134431 0  0.416296484574756 0.2725641914725654 0  0.383579623112403 0.2864385127119433 0  0.3522950874261063 0.3025148978367017 0  0.3223756801624224 0.3202670412487831 0  0.2936021947986901 0.3394117345566767 0  0.2663362972428482 0.3599801253258402 0  0.2406328063366628 0.3821441593916023 0  0.2168580978213121 0.4060066304489104 0  0.1963345770095851 0.4319190155800915 0  0.1821796760165911 0.4604766867821155 0  0.1872293159367331 0.4907141643094805 0  0.210889180652547 0.5134663138600547 0  0.2401411528375663 0.5311270930854539 0  0.2715003375046526 0.5456435386453622 0  0.3041261299099421 0.5576561089095343 0  0.3376451176514003 0.5676122470449569 0  0.3719551365942309 0.5756463679883819 0  0.4070295291775207 0.5818057032324682 0  0.4428766110884134 0.5860880219128543 0  0.479608698296055 0.5879164753062991 0  0.5738491405238506 0.4152431822481596 0  0.3860712175596706 0.3300099836140449 0  0.4354603334677818 0.5441687815817242 0  0.2997662305841096 0.3810889214721963 0  0.3595327063723672 0.5346776899885004 0  0.4512517971523926 0.3046818187733329 0  0.5036737880518442 0.5483177819480787 0  0.2947744407224391 0.5157483084837833 0  0.5561069029066976 0.3427634561322888 0  0.2505077670579031 0.4238485200588401 0  0.5728221241130126 0.4912333322691085 0  0.5170507767547607 0.2897090142760312 0  0.235855110940662 0.488808455790679 0  0.209007837601204 0.4714915796134164 0  0.5660669252398961 0.531967719946288 0  0.5309549267747731 0.5136026705529044 0  0.5420388134761002 0.4695812282255428 0  0.5051329641447343 0.4846609741159073 0  0.5115367389368222 0.4445697850591827 0  0.4757712180300777 0.457941164707475 0  0.4815933345064937 0.4166808092212305 0  0.446169047209968 0.4297129447881191 0  0.4505676162458899 0.3883618913811089 0  0.4160118268398134 0.4005621801662076 0  0.411657931360223 0.442693842173102 0  0.3823055923617311 0.4128105418329302 0  0.4860807957856365 0.3761379091896692 0  0.378378699024057 0.4550090788521207 0  0.350988516795029 0.4254016734892024 0  0.347406981288212 0.4658847078564505 0  0.4055969392697797 0.4854672673917237 0  0.3547690970122752 0.3842434010438763 0  0.3207338099947746 0.4376417526197939 0  0.4654542816174062 0.50325772862635 0  0.4527720927692782 0.347439445663241 0  0.4852499721207249 0.3357627109098705 0  0.5159015296830655 0.4059261753323161 0  0.4403567524630568 0.4718522582266034 0  0.5258902257906513 0.3673750656951403 0  0.4185765936770164 0.35936164490357 0  0.3856908525350566 0.3715781069439139 0  0.3982214274492709 0.5321340689382362 0  0.3266904850852892 0.5264038682250325 0  0.4703525610185816 0.5478488549048731 0  0.273532412070971 0.4006234744352911 0  0.2860199530631433 0.4426668437999883 0  0.4181018622471554 0.3167633728037054 0  0.3158995355636402 0.4817687570943347 0  0.2645073933493703 0.5047272775482711 0  0.2287189174615331 0.4471398473266158 0  0.3544205179735024 0.3442174336168012 0  0.5679739398104549 0.3784381502913909 0  0.5761915644650768 0.4520668393040332 0  0.3743817341424309 0.495482816352396 0  0.2571452900324035 0.4645510842671801 0  0.5473591424293546 0.3128671723041965 0  0.3257531665937005 0.3609189415787097 0  0.4851423853794215 0.296880564968537 0  0.4308431235354517 0.5072173610642702 0  0.5202652332008487 0.3277730131183493 0  0.544707528997727 0.4322967118321129 0  0.2840477613064711 0.4819586782325942 0  0.3263094062037016 0.399342968680769 0  0.4940985013744634 0.5181702509934448 0  0.5343003054574819 0.5519329945117815 0  0.3449621030530918 0.5009114241160562 0  0.5457994789688067 0.3999039727421885 0  0.2988057369146018 0.4127493463188265 0  0.6057470135169595 0.3327149825029913 0  0.6286958721237911 0.4516077247868545 0  0.3192760559215756 0.5800210064383121 0  0.5348864320911754 0.599161252887948 0  0.9837153862532658 0.7028937847388409 0  0.6449349880239733 0.9856105725246205 0  0.4224407967196361 0.6018736707587419 0  0.990607595248489 0.536759329684207 0  0.9847211259058191 0.2689695115003649 0  0.2814218578952641 0.976589357747131 0  0.2989165563568781 0.3129469651654702 0  0.3904203216750898 0.2621471453894313 0  0.4393459840610767 0.983795369726831 0  0.2241473860344683 0.5406941907681735 0  0.04907760101067413 0.7583245805119933 0  0.7152029908994261 0.03136345110568862 0  0.2177553455805367 0.3762563955769653 0  0.6174528693633567 0.5317351088706159 0  0.8022360735721479 0.9847309124870551 0  0.2263011293022101 0.02910564024282434 0  0.0406447704111678 0.220336998848048 0  0.1767769260704819 0.4275067358332904 0  0.5595851448566642 0.0306238400498148 0  0.3923814385769841 0.02587014360722856 0  0.8595780795257218 0.03320684297527184 0  0.167574704021338 0.4781481738662242 0  0.4636636345630383 0.2435742502229371 0  0.04036118149388951 0.5987794868171182 0  0.9871937496097138 0.8504219599345627 0  0.03488808167878749 0.3230298790134588 0  0.6058674499555183 0.5645262036830742 0  0.6301810527059504 0.548703036417226 0  0.6205615088967
[...]
<PointData  Scalars="v"> 
<DataArray  type="Float64"  Name="v"  format="ascii">0.0000000000000000e+00  0.0000000000000000e+00  0.0000000000000000e+00  0.0000000000000000e+00  0.0000000000000000e+00  0.0000000000000000e+00  0.0000000000000000e+00  0.0000000000000000e+00  1.3593370543858558e-03  0.0000000000000000e+00  0.0000000000000000e+00  0.0000000000000000e+00  0.0000000000000000e+00  0.0000000000000000e+00  0.0000000000000000e+00  0.0000000000000000e+00  0.0000000000000000e+00  0.0000000000000000e+00  0.0000000000000000e+00  0.0000000000000000e+00  0.0000000000000000e+00  0.0000000000000000e+00  0.0000000000000000e+00  0.0000000000000000e+00  0.0000000000000000e+00  0.0000000000000000e+00  0.0000000000000000e+00  0.0000000000000000e+00  0.0000000000000000e+00  0.0000000000000000e+00  0.0000000000000000e+00  0.0000000000000000e+00  0.0000000000000000e+00  0.0000000000000000e+00  0.0000000000000000e+00  0.0000000000000000e+00  0.0000000000000000e+00  0.0000000000000000e+00  0.0000000000000000e+00  0.0000000000000000e+00  0.0000000000000000e+00  0.0000000000000000e+00  0.0000000000000000e+00  0.0000000000000000e+00  0.0000000000000000e+00  0.0000000000000000e+00  0.0000000000000000e+00  0.0000000000000000e+00  0.0000000000000000e+00  0.0000000000000000e+00  0.0000000000000000e+00  0.0000000000000000e+00  0.0000000000000000e+00  0.0000000000000000e+00  0.0000000000000000e+00  0.0000000000000000e+00  0.0000000000000000e+00  0.0000000000000000e+00  0.0000000000000000e+00  0.0000000000000000e+00  0.0000000000000000e+00  0.0000000000000000e+00  0.0000000000000000e+00  0.0000000000000000e+00  0.0000000000000000e+00  0.0000000000000000e+00  0.0000000000000000e+00  0.0000000000000000e+00  0.0000000000000000e+00  0.0000000000000000e+00  0.0000000000000000e+00  0.0000000000000000e+00  0.0000000000000000e+00  0.0000000000000000e+00  0.0000000000000000e+00  0.0000000000000000e+00  0.0000000000000000e+00  0.0000000000000000e+00  0.0000000000000000e+00  0.0000000000000000e+00  0.0000000000000000e+00  0.0000000000000000e+00  0.0000000000000000e+00  0.0000000000000000e+00  0.0000000000000000e+00  0.0000000000000000e+00  0.0000000000000000e+00  0.0000000000000000e+00  0.0000000000000000e+00  0.0000000000000000e+00  0.0000000000000000e+00  0.0000000000000000e+00  0.0000000000000000e+00  0.0000000000000000e+00  0.0000000000000000e+00  0.0000000000000000e+00  0.0000000000000000e+00  0.0000000000000000e+00  0.0000000000000000e+00  0.0000000000000000e+00  0.0000000000000000e+00  0.0000000000000000e+00  0.0000000000000000e+00  0.0000000000000000e+00  0.0000000000000000e+00  0.0000000000000000e+00  0.0000000000000000e+00  0.0000000000000000e+00  0.0000000000000000e+00  0.0000000000000000e+00  0.0000000000000000e+00  0.0000000000000000e+00  0.0000000000000000e+00  0.0000000000000000e+00  0.0000000000000000e+00  0.0000000000000000e+00  0.0000000000000000e+00  0.0000000000000000e+00  0.0000000000000000e+00  0.0000000000000000e+00  0.0000000000000000e+00  0.0000000000000000e+00  0.0000000000000000e+00  0.0000000000000000e+00  0.0000000000000000e+00  0.0000000000000000e+00  0.0000000000000000e+00  0.0000000000000000e+00  0.0000000000000000e+00  0.0000000000000000e+00  0.0000000000000000e+00  0.0000000000000000e+00  0.0000000000000000e+00  0.0000000000000000e+00  0.0000000000000000e+00  0.0000000000000000e+00  0.0000000000000000e+00  0.0000000000000000e+00  0.0000000000000000e+00  0.0000000000000000e+00  0.0000000000000000e+00  0.0000000000000000e+00  0.0000000000000000e+00  0.0000000000000000e+00  0.0000000000000000e+00  0.0000000000000000e+00  0.0000000000000000e+00  0.0000000000000000e+00  0.0000000000000000e+00  0.0000000000000000e+00  0.0000000000000000e+00  0.0000000000000000e+00  0.0000000000000000e+00  0.0000000000000000e+00  0.0000000000000000e+00  0.0000000000000000e+00  0.0000000000000000e+00  0.0000000000000000e+00  0.0000000000000000e+00  0.0000000000000000e+00  0.0000000000000000e+00  0.0000000000000000e+00  0.0000000000000000e+00  0.0000000000000000e+00  0.0000000000000000e+00  0.0000000000000000e+00  0.0000000000000000e+00  0.0000000000000000e+00  0.0000000000000000e+00  0.0000000000000000e+00  0.0000000000000000e+00  0.0000000000000000e+00  0.0000000000000000e+00  0.0000000000000000e+00  0.0000000000000000e+00  0.0000000000000000e+00  0.0000000000000000e+00  1.3721585720907717e-03  1.3770890240052298e-03  1.3607275077942452e-03  1.3449421029313390e-03  1.3278710664696967e-03  1.3089350668962184e-03  1.2865196325272913e-03  1.2591176917086785e-03  1.2281989274538314e-03  1.1950660084940434e-03  1.1876921422266542e-03  1.1847433406378474e-03  1.1809222232246435e-03  1.1776666965487655e-03  1.1720277854337666e-03  1.1634134203321125e-03  1.1511196554235153e-03  1.1344821188196874e-03  1.1137922515077777e-03  1.0885634899941725e-03  1.0606443470334613e-03  1.0245894560378091e-03  1.0410308972625989e-03  1.1015717365902952e-03  1.1485123651643115e-03  1.1890918215030359e-03  1.2245854510402820e-03  1.2555298170221013e-03  1.2825066283677659e-03  1.3075847107936194e-03  1.3274441886112660e-03  1.3447944167470052e-03  1.3050455254947852e-03  1.2184005282278002e-03  1.3011509558174109e-03  1.1885080950389956e-03  1.2542832377096256e-03  1.2318323410744848e-03  1.3275479944163098e-03  1.2052012637685412e-03  1.2709706719357969e-03  1.1566620848811754e-03  1.3315007655543916e-03  1.2410640877969588e-03  1.1527798727810827e-03  1.1251530448068382e-03  1.3414442407629870e-03  1.3284402713955870e-03  1.3182778100033520e-03  1.3135851809719693e-03  1.3016895807981589e-03  1.2936393678062883e-03  1.2822676284102821e-03  1.2728928310763695e-03  1.2607093200916704e-03  1.2500953579632412e-03  1.2610093497435167e-03  1.2368391399247426e-03  1.2684768649595163e-03  1.2466687558438476e-03  1.2225953194096742e-03  1.2320596521535779e-03  1.2708431625794937e-03  1.2156149688588983e-03  1.2069507001015369e-03  1.3039453703584838e-03  1.2464426196947785e-03  1.2509035793221526e-03  1.2899996735272930e-03  1.2835751374534214e-03  1.2769565323617535e-03  1.2380488332049975e-03  1.2275783210003899e-03  1.2781043488805501e-03  1.2328591316868209e-03  1.3170001027558297e-03  1.1734819927015222e-03  1.1836418288066401e-03  1.2259973928592245e-03  1.2145890526740078e-03  1.1795312041251486e-03  1.1423014438295604e-03  1.2082220967471404e-03  1.2908100474625967e-03  1.3191707860941283e-03  1.2540671532939576e-03  1.1647576711419578e-03  1.2569795862150911e-03  1.1982079162227391e-03  1.2380991305382168e-03  1.2895409873527478e-03  1.2578579727195224e-03  1.3056167843989803e-03  1.1883146592234050e-03  1.2027416391172320e-03  1.3187070612563025e-03  1.3391540270790859e-03  1.2387757797589979e-03  1.2948999193765263e-03  1.1882419225033578e-03  1.2723881307993997e-03  1.3512185977824123e-03  1.2461049891598689e-03  1.3885799825229745e-03  1.2670441934159449e-04  1.1948581976405670e-04  1.3354756072025283e-03  1.0315712336959560e-04  9.6855530906771691e-05  1.2868567008221256e-04  1.1083052203122664e-03  1.1282750307476540e-03  1.3714110217052214e-04  1.1035600189717464e-03  1.7029194468309367e-04  1.4915272278825107e-04  1.0325457051241619e-03  1.3871829651417324e-03  8.8161667170255889e-05  9.1555965487679334e-05  1.1627889699338536e-04  9.6157798254821512e-04  1.7181399660501663e-04  1.3595514514016575e-04  8.6843620324740368e-05  9.4314986925288441e-04  1.1458860302910449e-03  1.9196440591810944e-04  6.2393290247286950e-05  1.4174675712933676e-04  1.4034720290905386e-03  1.4098878012812946e-03  1.4251209486812386e-03  1.4234264483851591e-03  1.4362721263283802e-03  1.4227077035538875e-03  1.4289821295519194e-03  1.4011439245943172e-03  1.3964216863771143e-03  1.4225549505186719e-03  1.3923362297481908e-03  1.3744683913367104e-03  1.3950972610118765e-03  1.3468507639838312e-03  1.3298644269700351e-03  1.3424883312211308e-03  1.2590810057518517e-03  1.2358687703235003e-03  1.2631878604675282e-03  1.3364103855293514e-03  1.2441829064327615e-03  1.3107314021969401e-03  1.2046205756962103e-03  1.2666432457401988e-03  1.1489631879122708e-03  1.2058037422823884e-03  1.1500591042036810e-03  1.1175572465933349e-03  1.0777036097978552e-03  1.1268146380232090e-03  1.1198592300083897e-03  1.0209529486406666e-03  9.8183740072614557e-04  9.8939620017024455e-04  1.0299564321128837e-03  8.7867425298850121e-04  8.3532358887773055e-04  9.2091717114402348e-04  1.1511710405592891e-03  1.0463333282315617e-03  9.1846282529000267e-04  9.2465292347310298e-04  7.9617073447523531e-04  7.6935477865409084e-04  8.3798454838588266e-04  1.0351379836237562e-03  9.0482387672689423e-04  8.9995737408624370e-04  1.3040844158856639e-03  1.0003094136231234e-03  8.6117086791189391e-04  9.2454382066870877e-04  6.8339173300881824e-04  9.4148530071692154e-05  6.1622641629780926e-04  1.3057732431730331e-04  8.5854362697463976e-05  5.9825191962648438e-05  7.9665609559379701e-05  1.1132860159695607e-03  9.5204791573810213e-04  8.3823882568830022e-04  8.4527180348211307e-04  7.1873570758863110e-04  6.9811029796039003e-04  7.2578211301958665e-04  1.4369470712701498e-03  7.5399565745758277e-04  7.6444163244690142e-04  8.3219201822285708e-04  7.0152298507984446e-05  7.1140015226036333e-04  7.5532948908459770e-04  9.4593046213515837e-04  8.4693023442760696e-04  7.2868978014402818e-04  5.3455940651748210e-04  6.1691092283664177e-04  1.3813626783172395e-03  5.7280426145243566e-04  5.7211448695509406e-04  1.0078054264908158e-03  8.8850988194770215e-04  7.3020228437408754e-04  7.5777783438095848e-04  9.0918709149473398e-04  7.6876724786898375e-04  9.1460419345662503e-04  7.6359613503397203e-04  9.0393266380643005e-04  7.4007009014525704e-04  8.7441432887473886e-04  7.0632362387531178e-04  8.2912615148838316e-04  9.8888725180624050e-04  9.3369078862535235e-04  7.7569365871788258e-04  8.6909633981693552e-04  1.0146053304752932e-03  9.4125278560788827e-04  7.9619813380173827e-04  8.5750503583448994e-04  7.1687797636791381e-04  7.5975667868517424e-04  8.9089468343842135e-04  6.2779649101431061e-04  7.7825625258918737e-04  1.1759311384733637e-03  8.9518169176882895e-04  1.0233370284236378e-03  7.7363457270002037e-04  8.7615131732379390e-04  7.3935848586958325e-04  8.3279219109675491e-04  6.6116465273862249e-04  6.4173940781199522e-04  9.8220337559389308e-04  6.8476549727647612e-04  7.8383124486191636e-04  7.5554104044594703e-04  6.6197793808465445e-04  6.1195014997963829e-04  5.1986065731579088e-05  4.6976085028623482e-04  3.9592343064917486e-04  1.0489492751583462e-03  1.1317884957891668e-03  1.1024242645771593e-03  1.0426444490992742e-03  1.1441492345662643e-03  4.3728102525975271e-04  6.0891433149526885e-04  6.5497614257773622e-04  5.0464840366793264e-04  5.9650668623510207e-04  1.4079775487706181e-03  5.9277585771137992e-04  5.7519635614775564e-04  7.3535453623449151e-04  4.2173655032881418e-04  8.4004441802381724e-04  5.5985433641230907e-04  6.1764599491418749e-04  6.8939434288629799e-04  6.4034701934833390e-04  6.5706586401441196e-04  5.6728547595556625e-04  5.3319176457742061e-04  7.4338769722008091e-04  6.0496847984163789e-05  4.7017230154236859e-04  5.9301771540138553e-04  4.4221924591811735e-04  5.6562659857506176e-04  8.4895961169976478e-04  1.0592995473135936e-03  5.5326366783062925e-04  4.7096289167112253e-04  5.1527201486154396e-04  5.5807926919805649e-04  3.3608639612933439e-04  3.8521087170249315e-04  2.7500866840004308e-04  1.4289486620016722e-03  3.7769878140197377e-04  4.1060450088185716e-04  6.0724217315941684e-04  1.0728043441268925e-03  1.1415645555775732e-03  1.1847309676286607e-03  1.2429214114731784e-03  1.2697764449404968e-03  1.3155518771985372e-03  1.2893421381561731e-03  1.3232932626081461e-03  1.2783752320413950e-03  1.3162671498656241e-03  1.2737348418882799e-03  1.2216982841649912e-03  1.2223127419392630e-03  5.3020663607960053e-04  6.0196875679483083e-04  4.5439090296133352e-04  3.5568785133768176e-05  4.7946244921706686e-05  1.1069133742762011e-03  1.1946222855885361e-03  7.5067993382893050e-04  6.6076306817547349e-04  5.1619668259650874e-04  5.7099741375292857e-04  7.1507470042611414e-04  6.2483626838878215e-04  7.8495151234959286e-04  6.7238883833362648e-04  8.0926924669864669e-04  7.0064208983157601e-04  5.6611404327403100e-04  5.9305852584722767e-04  7.2129879215642270e-04  6.0797184085574680e-04  7.2340008482025186e-04  6.0449682584762189e-04  7.0513963603711460e-04  5.8043490464420439e-04  4.8696591503858723e-04  6.6690223425573106e-04  5.3485963997829589e-04  4.5828193681128214e-04  6.0655580504709436e-04  4.6893103650667443e-04  4.0975092242320646e-04  8.5667421197941870e-04  7.9858974734707934e-04  4.6691595191976235e-04  1.1890387044556729e-03  3.3966833073243694e-04  3.9563167528443879e-04  4.2081341022762278e-04  4.5023968534800920e-04  5.2680948642581916e-04  6.8915566212709675e-04  3.7432970875472382e-04  7.7477873482473670e-04  6.5739333710690547e-04  4.6427040161652815e-04  1.1554811943678262e-03  9.1348341423031420e-04  9.3486796145059712e-04  1.3030864929469814e-03  1.3577435193412976e-03  4.6597474477869805e-04  3.1080430750426589e-04  1.1415877684913256e-03  3.6497489895403378e-05  6.1891990394843087e-04  5.0994536956084594e-04  4.5696388513859464e-04  3.6100467155592052e-04  7.1822455847071743e-04  1.0128177803229842e-03  4.2119642248011999e-04  3.2138572088578660e-04  3.5885139335157786e-04  2.9266296548755233e-04  3.0857255492239125e-04  2.1113325852497295e-04  2.0611754426006214e-04  3.3144051971122659e-04  2.5868596945411733e-04  2.8810946622265482e-04  4.2142373201058846e-04  3.6717939928870646e-04  4.9396023369718692e-04  3.2954538555607593e-04  4.4359267836539590e-04  2.8596909679640342e-04  3.9066373610725010e-04  9.5114502647773832e-04  9.5442594291352489e-04  8.5286852175854469e-04  1.0425578354134029e-03  1.0406655062159226e-03  1.1189987174110780e-03  1.1163293382977532e-03  1.1810303737422574e-03  1.1851383995190750e-03  1.2358649151312400e-03  1.2403941746637072e-03  1.2829443588626946e-03  1.2913151828157650e-03  1.3245663179464887e-03  1.3326005854684688e-03  1.3610421803396300e-03  1.3652348750234182e-03  1.3896103443119070e-03  1.3895976702993514e-03  1.4107555176512496e-03  1.3194198817385054e-03  1.3986631382746221e-03  1.4179477709907722e-03  1.4254224428436352e-03  1.4326211833670215e-03  6.9338809315084226e-04  4.7942023052362958e-04  8.6979043376138798e-04  2.9173382044659518e-04  1.3047586153964164e-03  1.0739922264654141e-03  4.6224783495305352e-04  4.8059855583917736e-04  3.5957661079996975e-04  7.6017812082280968e-04  1.1200250778757392e-03  2.5277840907515336e-04  2.9521698774294066e-04  9.6782257073003129e-04  1.0237240582022789e-03  6.6917797441327248e-04  9.2007463031795842e-04  1.1730976830690739e-03  2.0863685180899869e-04  3.9396918970510491e-04  2.4506201384670416e-04  1.7634543629769205e-04  1.3760273903329354e-03  1.7514842171243101e-04  1.1468029076782736e-03  2.3664928353046971e-04  2.7023245359142692e-04  3.7935788281899362e-04  2.8328846464759051e-04  1.7281426970580779e-04  1.3317026781556136e-03  4.2135276563889023e-04  1.2603685626733643e-03  1.2400494616783195e-03  1.4008095798562843e-03  9.5429314550728454e-04  3.4226059100014503e-04  1.2204843354803349e-04  1.3770974324204136e-03  2.8954023344007632e-04  4.3345764804502053e-04  2.7605518429081182e-04  1.4360860163755960e-03  1.3729304808442339e-03  1.3684231525459159e-03  1.0097763894532667e-03  9.2111868458870784e-04  1.0493432758827148e-03  2.9612986158385467e-04  3.8616195915479209e-04  2.1632552732104665e-04  2.7228180453454465e-04  9.5498545989360431e-04  2.4056589144851062e-04  3.3161685366739900e-04  1.9461630065569416e-04  2.6886349880784918e-04  3.9395803681011688e-04  3.1902674731238421e-04  2.1033039447526449e-04  2.4052268174815873e-04  3.4679873506679578e-04  1.5162798918519232e-04  2.5211616414458197e-04  3.5124511778803776e-04  2.3686399372772700e-04  3.2896405246129426e-04  4.6010254200145619e-04  1.3512438933929308e-03  9.9851761824135024e-04  9.2780815048437129e-04  9.6229841056737046e-04  8.7347169709798384e-04  9.3000877803711690e-04  8.4456906237345914e-04  9.5192637537175589e-04  9.3128391010369855e-04  8.9200953540216090e-04  9.9712195345582071e-04  1.0346914565079503e-03  1.2361487895433843e-03  3.6245992807660958e-04  2.8894225904131611e-04  3.7007675632640943e-04  2.8683357631230686e-04  2.0632579852447936e-04  9.9170648314080988e-04  1.3028598443743683e-03  1.2184494239632261e-04  3.0154999891461310e-04  7.6557089571780931e-04  1.3217790419683780e-04  2.3765074821413971e-04  1.9187683695554686e-04  9.2504631214571735e-05  1.5382734798970792e-04  2.4814447546023927e-04  1.8394572724048837e-04  1.1066600022087665e-04  4.9119829971307625e-05  2.9238371148742080e-04  1.1599348216339428e-03  1.2428761675575043e-03  1.2372834802580163e-03  9.9104528407654015e-04  2.0061166868604624e-04  1.0624627755197065e-03  6.2684861707458213e-04  6.4993460057505227e-04  1.1230993485294226e-03  1.0779434060067465e-03  1.1442564539432720e-03  1.0320300666780812e-03  1.1622865902765197e-03  1.1714179617519798e-03  1.2688649682009634e-03  1.2489425004974287e-03  1.2710387445761511e-03  1.1631121858911148e-03  1.2616025181582339e-03  1.3385882204172911e-03  1.1405688471211181e-03  1.3884138574255752e-03  1.3515918283344044e-03  1.4093245680507718e-03  7.5696815845262714e-05  2.5075735336560105e-04  1.3144090847160531e-03  8.9870797484981513e-04  1.0362759616455060e-03  1.1740219505305671e-04  4.3848750288110052e-04  1.4128137132943819e-04  1.4903162531622484e-04  4.5815338534033016e-04  4.2601598437301118e-04  1.7245528915028535e-04  1.6442026049045939e-04  2.7346881673785098e-04  8.3220001558040834e-04  1.1271645779219045e-03  1.1188739278185631e-03  1.0543575143924198e-03  1.0568022704863507e-03  1.3318674132455062e-03  8.0420161819468326e-05  1.4176123020099749e-04  3.1008464022168819e-04  1.0374423865437995e-03  1.4289245955235725e-04  2.9503651307168609e-04  2.7465544992499820e-04  1.1456463249144492e-04  1.3945086924777744e-03  2.6602072964655705e-04  9.3030187927053087e-04  1.3506074109249028e-03  1.1629090372954252e-04  1.2604654546094656e-04  1.1643317615241952e-04  4.8537263459746358e-04  1.2112220896179715e-03  7.1510285767651592e-05  9.4964407249637287e-04  5.2880083009955198e-04  1.7056641804079651e-04  8.1453998073264307e-04  4.3759480481850235e-05  6.0739312409040160e-04  2.9349950332302770e-04  6.3605585244377738e-05  7.3483482842525932e-05  1.9356984112311218e-04  1.3192481085224874e-04  8.3875673682195023e-05  1.0028378380037171e-03  8.4183452934518635e-04  6.1009594150533740e-04  1.3350838474685471e-03  7.9562405130790984e-04  5.0150619339421063e-05  1.3426121481470289e-04  1.6126427338543795e-04  1.0801117935261950e-03  6.6154503199649078e-04  1.1973503645963319e-03  7.7083018263097354e-05  1.5255696961019545e-04  1.5409139476537184e-04  2.7266288726201702e-04  4.4728890167140383e-04  5.9854059078209528e-04  1.1817188272799376e-04  1.0608116506737638e-03  5.8059828297210992e-04  1.3870454663331645e-03  1.3718579161109354e-03  1.0488530901614985e-03  4.4983033113009055e-04  8.1328652919947209e-04  3.0977463046874966e-04  1.2807770459600789e-03  4.8508803385801806e-04  6.8216291786659994e-04  1.3499658827692009e-03  2.9197457429736392e-04  4.2211081935204634e-04  5.9630788742241227e-04  5.7995390071985246e-04  1.0061255679234872e-03  6.6037592300622900e-04  1.1108121443524836e-03  7.2963912245511660e-04  1.0717527027187626e-03  2.6176911134067021e-04  2.8279589267937586e-04  1.2568302253638014e-03  9.7683802043555153e-04  8.8646202068401274e-04  1.4141808748233927e-03  1.4271198989277217e-03  1.4414515334446362e-03  1.1753216553530644e-04  1.3977507458501058e-04  2.8803363820328323e-04  7.9621019066772683e-04  8.7119936398076975e-05  3.5287097462174876e-05  1.8077245795471611e-04  6.3941576223704836e-05  2.9565123194085398e-05  5.2661439335192624e-04  9.3459295754486589e-05  1.3104705241407863e-03  1.4183595728800707e-04  5.2747619525819473e-04  1.3297273818679545e-03  1.4428254961436006e-03  1.0497356333168668e-03  1.0994920057452906e-03  1