<?xml version="1.0"?>
<VTKFile type="UnstructuredGrid"  version="0.1"  >
<UnstructuredGrid>
<Piece  NumberOfPoints="1256" NumberOfCells="2414">
<Points>
<DataArray  type="Float64"  NumberOfComponents="3"  format="ascii">0 0 0  0 1 0  1 1 0  1 0 0  1.1 -0.1 0  -0.1 -0.1 0  1.1 1.1 0  -0.1 1.1 0  0.5071436496205231 0.5179103075235474 0  0.6000972175815862 0.7279763383836354 0  0 0.9499999999997918 0  0 0.8999999999995836 0  0 0.8499999999996529 0  0 0.7999999999999998 0  0 0.7500000000003466 0  0 0.7000000000006934 0  0 0.6500000000010401 0  0 0.6000000000013869 0  0 0.5500000000017335 0  0 0.5000000000020587 0  0 0.4500000000018723 0  0 0.4000000000016644 0  0 0.3500000000014564 0  0 0.3000000000012483 0  0 0.2500000000010403 0  0 0.2000000000008322 0  0 0.1500000000006241 0  0 0.100000000000416 0  0 0.05000000000020799 0  0.04999999999989965 0 0  0.09999999999981467 0 0  0.1499999999997036 0 0  0.1999999999995579 0 0  0.2499999999994121 0 0  0.2999999999992664 0 0  0.3499999999991206 0 0  0.3999999999989749 0 0  0.4499999999988292 0 0  0.4999999999986943 0 0  0.5499999999988151 0 0  0.5999999999989468 0 0  0.6499999999990784 0 0  0.69999999999921 0 0  0.7499999999993417 0 0  0.7999999999994734 0 0  0.8499999999996051 0 0  0.8999999999997368 0 0  0.9499999999998684 0 0  1 0.04999999999989965 0  1 0.09999999999981467 0  1 0.1499999999997036 0  1 0.1999999999995579 0  1 0.2499999999994121 0  1 0.2999999999992664 0  1 0.3499999999991206 0  1 0.3999999999989749 0  1 0.4499999999988292 0  1 0.4999999999986943 0  1 0.5499999999988151 0  1 0.5999999999989468 0  1 0.6499999999990784 0  1 0.69999999999921 0  1 0.7499999999993417 0  1 0.7999999999994734 0  1 0.8499999999996051 0  1 0.8999999999997368 0  1 0.9499999999998684 0  0.9499999999997918 1 0  0.8999999999995836 1 0  0.8499999999996529 1 0  0.7999999999999998 1 0  0.7500000000003466 1 0  0.7000000000006934 1 0  0.6500000000010401 1 0  0.6000000000013869 1 0  0.5500000000017335 1 0  0.5000000000020587 1 0  0.4500000000018723 1 0  0.4000000000016644 1 0  0.3500000000014564 1 0  0.3000000000012483 1 0  0.2500000000010403 1 0  0.2000000000008322 1 0  0.1500000000006241 1 0  0.100000000000416 1 0  0.05000000000020799 1 0  -0.1 1.05000000000004 0  -0.1 1.000000000000079 0  -0.1 0.9500000000001624 0  -0.1 0.9000000000003032 0  -0.1 0.850000000000444 0  -0.1 0.8000000000005848 0  -0.1 0.7500000000007256 0  -0.1 0.7000000000008665 0  -0.1 0.6500000000010508 0  -0.1 0.6000000000012352 0  -0.1 0.5500000000014196 0  -0.1 0.500000000001539 0  -0.1 0.4500000000014195 0  -0.1 0.4000000000013 0  -0.1 0.3500000000011588 0  -0.1 0.3000000000010178 0  -0.1 0.2500000000008986 0  -0.1 0.2000000000007579 0  -0.1 0.1500000000006174 0  -0.1 0.1000000000005272 0  -0.1 0.05000000000040083 0  -0.1 2.671196597248127e-13 0  -0.1 -0.0499999999998666 0  -0.0500000000000906 -0.1 0  -1.730560139634463e-13 -0.1 0  0.04999999999975802 -0.1 0  0.09999999999961506 -0.1 0  0.1499999999994613 -0.1 0  0.199999999999302 -0.1 0  0.2499999999991446 -0.1 0  0.2999999999990088 -0.1 0  0.3499999999988296 -0.1 0  0.3999999999986936 -0.1 0  0.4499999999985143 -0.1 0  0.4999999999984002 -0.1 0  0.5499999999985247 -0.1 0  0.5999999999986493 -0.1 0  0.6499999999987955 -0.1 0  0.6999999999989417 -0.1 0  0.7499999999990659 -0.1 0  0.7999999999992116 -0.1 0  0.8499999999993573 -0.1 0  0.8999999999994526 -0.1 0  0.949999999999584 -0.1 0  0.9999999999997226 -0.1 0  1.049999999999861 -0.1 0  1.1 -0.0500000000000906 0  1.1 -1.730560139634463e-13 0  1.1 0.04999999999975802 0  1.1 0.09999999999961506 0  1.1 0.1499999999994613 0  1.1 0.199999999999302 0  1.1 0.2499999999991446 0  1.1 0.2999999999990088 0  1.1 0.3499999999988296 0  1.1 0.3999999999986936 0  1.1 0.4499999999985143 0  1.1 0.4999999999984002 0  1.1 0.5499999999985247 0  1.1 0.5999999999986493 0  1.1 0.6499999999987955 0  1.1 0.6999999999989417 0  1.1 0.7499999999990659 0  1.1 0.7999999999992116 0  1.1 0.8499999999993573 0  1.1 0.8999999999994526 0  1.1 0.949999999999584 0  1.1 0.9999999999997226 0  1.1 1.049999999999861 0  1.05000000000004 1.1 0  1.000000000000079 1.1 0  0.9500000000001624 1.1 0  0.9000000000003032 1.1 0  0.850000000000444 1.1 0  0.8000000000005848 1.1 0  0.7500000000007256 1.1 0  0.7000000000008665 1.1 0  0.6500000000010508 1.1 0  0.6000000000012352 1.1 0  0.5500000000014196 1.1 0  0.500000000001539 1.1 0  0.4500000000014195 1.1 0  0.4000000000013 1.1 0  0.3500000000011588 1.1 0  0.3000000000010178 1.1 0  0.2500000000008986 1.1 0  0.2000000000007579 1.1 0  0.1500000000006174 1.1 0  0.1000000000005272 1.1 0  0.05000000000040083 1.1 0  2.671196597248127e-13 1.1 0  -0.0499999999998666 1.1 0  0.6230832116348871 0.7165650753796931 0  0.6445593231642395 0.7028609821474934 0  0.6643094772551222 0.6871763033462813 0  0.6819292960618955 0.6698357543284804 0  0.6975676888899209 0.6510294207208123 0  0.7112814446886017 0.6307529579701827 0  0.723002106736407 0.6091190233427168 0  0.7326927329583898 0.586156084723309 0  0.7400709200583968 0.5623537916536598 0  0.7450680462804258 0.5377684628812448 0  0.747609890725089 0.5126475169928557 0  0.7476937826753517 0.4872609307034017 0  0.7453189054914594 0.4619110838200472 0  0.7404895221739538 0.4368396224380472 0  0.7332262749812563 0.4123500709145018 0  0.72356240960405 0.3888395779881853 0  0.7115012920237673 0.3664298904278144 0  0.6972591577138889 0.345546435335983 0  0.6808771822808247 0.3263251985911962 0  0.6627323839425709 0.3090688894958837 0  0.6433573057500196 0.2940188689611968 0  0.6226084248062215 0.2808994393265629 0  0.6008042887663775 0.2699247382357565 0  0.5781649281878023 0.2611266954516244 0  0.5546531257384072 0.2544357999567545 0  0.5304296313752158 0.2501262581038429 0  0.5056737780547925 0.2483918453098816 0  0.4804434787455593 0.2492705301132395 0  0.4553458721892306 0.2527270344599338 0  0.4305621061049182 0.2587980364287348 0  0.4064369744344656 0.2673099935956618 0  0.3832481429196593 0.2783316042562336 0  0.361273443700494 0.2915628594650927 0  0.3407498130058578 0.3068665310226741 0  0.3219039352357413 0.3240539839252537 0  0.3049177889952948 0.3428893374939411 0  0.289894218805227 0.3631588634210182 0  0.2774021946554923 0.3843923935873929 0  0.2672310134612756 0.4065734057125373 0  0.2595013280054952 0.4292261679466007 0  0.2541731821199054 0.4520437974684641 0  0.2510597480575615 0.4745042283298467 0  0.2498668547323024 0.4955420841880951 0  0.2504049583415368 0.5151278939456362 0  0.2524762005484041 0.5350134172176566 0  0.2565567921914303 0.5570692559492754 0  0.2627127876099034 0.579618847944287 0  0.2711934934119665 0.6019948465393614 0  0.2823741628742527 0.6239347248151582 0  0.2960689112587928 0.6448511087263755 0  0.3124038346160386 0.6645679625638724 0  0.330877228567022 0.6826813883662513 0  0.3512492410976856 0.6989814456535486 0  0.373252062337932 0.7131943310145294 0  0.3966851538650375 0.7251070850145727 0  0.4212241997720381 0.7345267889407942 0  0.4466025714664519 0.7415533129339318 0  0.4724467001286926 0.7460400269640357 0  0.4986550074605213 0.7478119750794102 0  0.5248240246566003 0.7468771216157002 0  0.5505982362797628 0.7432022522304654 0  0.5758170137501833 0.7368873389184484 0  0.2959991217395961 0.5952173248184364 0  0.2912978482355452 0.4067110499611772 0  0.6893660900275216 0.6320240262787851 0  0.7202619186787225 0.5478978098700313 0  0.6053529030431349 0.7011762987868666 0  0.3292807315165727 0.350669131197973 0  0.3849271751792702 0.3065276761680921 0  0.4503212314146992 0.2788076291796502 0  0.5417486152766213 0.2730521439237206 0  0.6535909608567875 0.3293926722146018 0  0.3379861728053793 0.6579352297814134 0  0.3941658520729187 0.6957986683251981 0  0.724780489348533 0.4774545243528973 0  0.7089988547143287 0.4081296560094005 0  0.2706794751311567 0.4699143145824135 0  0.5367546852383854 0.7214229228302114 0  0.4635273169255636 0.7202633897640195 0  0.600249167440143 0.2932696340723422 0  0.2724989678072465 0.5398852070368176 0  0.6856365355049544 0.3690587803808106 0  0.4957481213618634 0.2694547192832731 0  0.6448228288984893 0.6786997228982585 0  0.7099065398437285 0.5914463323105247 0  0.2657307319918567 0.5068382280881744 0  0.4062314571508467 0.2943188965649125 0  0.4066130570193652 0.321723344479603 0  0.3873984977760657 0.3345690469963012 0  0.4094154397676946 0.3496110942658677 0  0.3891711796868157 0.3637044592528711 0  0.4095324054019967 0.3769528421618906 0  0.4356421402713367 0.3668400536985684 0  0.3915513489789506 0.3948489592653768 0  0.4225830883419969 0.4135165811778992 0  0.3922140878817947 0.4346787929379158 0  0.4602229719146904 0.4073843200192554 0  0.4764733399456127 0.3601769088041074 0  0.5023345645717396 0.4070004873128081 0  0.5224832750922287 0.3648133461154917 0  0.5456272809790086 0.4082688174750676 0  0.564319280116002 0.3681755192177497 0  0.5879951218840936 0.4094316604324056 0  0.3690735413151681 0.4112403501535741 0  0.3627915047019101 0.4473440288695649 0  0.3922757172596605 0.4772022557287955 0  0.3634962312536693 0.4935466699174713 0  0.3896854845780959 0.5196427114747237 0  0.3600599469318249 0.5351958426668466 0  0.3840814444401626 0.5610234029561062 0  0.3363211833381161 0.5097299678818 0  0.3562574609175094 0.5755685416097406 0  0.3757440892269089 0.5977963260443792 0  0.4048259217414933 0.5906262925158833 0  0.6029583789779072 0.3745036308244805 0  0.6280020538991431 0.4039460137027095 0  0.6100888866317361 0.43957023921287 0  0.6463061882382449 0.4337167575468314 0  0.6354388315546865 0.4703521856645703 0  0.5431344884874665 0.3425012823985413 0  0.4040349487224669 0.6218520894419937 0  0.4301089309503247 0.616495718740981 0  0.5892198877841309 0.4780527401101909 0  0.6137215018129233 0.509002898777173 0  0.6495812527035603 0.4999283332183567 0  0.6444252672806762 0.5393347412508062 0  0.5964446678897795 0.5488408360015026 0  0.6240207248365236 0.5823651273201704 0  0.5807484718825208 0.590058625267646 0  0.6076718185970312 0.6246177838421507 0  0.5664101381004307 0.6365753072511011 0  0.541434861
[...]
<PointData  Scalars="v"> 
<DataArray  type="Float64"  Name="v"  format="ascii">0.0000000000000000e+00  0.0000000000000000e+00  0.0000000000000000e+00  0.0000000000000000e+00  0.0000000000000000e+00  0.0000000000000000e+00  0.0000000000000000e+00  0.0000000000000000e+00  3.9193477634526286e-05  3.7525428387013983e-05  0.0000000000000000e+00  0.0000000000000000e+00  0.0000000000000000e+00  0.0000000000000000e+00  0.0000000000000000e+00  0.0000000000000000e+00  0.0000000000000000e+00  0.0000000000000000e+00  0.0000000000000000e+00  0.0000000000000000e+00  0.0000000000000000e+00  0.0000000000000000e+00  0.0000000000000000e+00  0.0000000000000000e+00  0.0000000000000000e+00  0.0000000000000000e+00  0.0000000000000000e+00  0.0000000000000000e+00  0.0000000000000000e+00  0.0000000000000000e+00  0.0000000000000000e+00  0.0000000000000000e+00  0.0000000000000000e+00  0.0000000000000000e+00  0.0000000000000000e+00  0.0000000000000000e+00  0.0000000000000000e+00  0.0000000000000000e+00  0.0000000000000000e+00  0.0000000000000000e+00  0.0000000000000000e+00  0.0000000000000000e+00  0.0000000000000000e+00  0.0000000000000000e+00  0.0000000000000000e+00  0.0000000000000000e+00  0.0000000000000000e+00  0.0000000000000000e+00  0.0000000000000000e+00  0.0000000000000000e+00  0.0000000000000000e+00  0.0000000000000000e+00  0.0000000000000000e+00  0.0000000000000000e+00  0.0000000000000000e+00  0.0000000000000000e+00  0.0000000000000000e+00  0.0000000000000000e+00  0.0000000000000000e+00  0.0000000000000000e+00  0.0000000000000000e+00  0.0000000000000000e+00  0.0000000000000000e+00  0.0000000000000000e+00  0.0000000000000000e+00  0.0000000000000000e+00  0.0000000000000000e+00  0.0000000000000000e+00  0.0000000000000000e+00  0.0000000000000000e+00  0.0000000000000000e+00  0.0000000000000000e+00  0.0000000000000000e+00  0.0000000000000000e+00  0.0000000000000000e+00  0.0000000000000000e+00  0.0000000000000000e+00  0.0000000000000000e+00  0.0000000000000000e+00  0.0000000000000000e+00  0.0000000000000000e+00  0.0000000000000000e+00  0.0000000000000000e+00  0.0000000000000000e+00  0.0000000000000000e+00  0.0000000000000000e+00  0.0000000000000000e+00  0.0000000000000000e+00  0.0000000000000000e+00  0.0000000000000000e+00  0.0000000000000000e+00  0.0000000000000000e+00  0.0000000000000000e+00  0.0000000000000000e+00  0.0000000000000000e+00  0.0000000000000000e+00  0.0000000000000000e+00  0.0000000000000000e+00  0.0000000000000000e+00  0.0000000000000000e+00  0.0000000000000000e+00  0.0000000000000000e+00  0.0000000000000000e+00  0.0000000000000000e+00  0.0000000000000000e+00  0.0000000000000000e+00  0.0000000000000000e+00  0.0000000000000000e+00  0.0000000000000000e+00  0.0000000000000000e+00  0.0000000000000000e+00  0.0000000000000000e+00  0.0000000000000000e+00  0.0000000000000000e+00  0.0000000000000000e+00  0.0000000000000000e+00  0.0000000000000000e+00  0.0000000000000000e+00  0.0000000000000000e+00  0.0000000000000000e+00  0.0000000000000000e+00  0.0000000000000000e+00  0.0000000000000000e+00  0.0000000000000000e+00  0.0000000000000000e+00  0.0000000000000000e+00  0.0000000000000000e+00  0.0000000000000000e+00  0.0000000000000000e+00  0.0000000000000000e+00  0.0000000000000000e+00  0.0000000000000000e+00  0.0000000000000000e+00  0.0000000000000000e+00  0.0000000000000000e+00  0.0000000000000000e+00  0.0000000000000000e+00  0.0000000000000000e+00  0.0000000000000000e+00  0.0000000000000000e+00  0.0000000000000000e+00  0.0000000000000000e+00  0.0000000000000000e+00  0.0000000000000000e+00  0.0000000000000000e+00  0.0000000000000000e+00  0.0000000000000000e+00  0.0000000000000000e+00  0.0000000000000000e+00  0.0000000000000000e+00  0.0000000000000000e+00  0.0000000000000000e+00  0.0000000000000000e+00  0.0000000000000000e+00  0.0000000000000000e+00  0.0000000000000000e+00  0.0000000000000000e+00  0.0000000000000000e+00  0.0000000000000000e+00  0.0000000000000000e+00  0.0000000000000000e+00  0.0000000000000000e+00  0.0000000000000000e+00  0.0000000000000000e+00  0.0000000000000000e+00  0.0000000000000000e+00  0.0000000000000000e+00  0.0000000000000000e+00  0.0000000000000000e+00  0.0000000000000000e+00  0.0000000000000000e+00  0.0000000000000000e+00  0.0000000000000000e+00  0.0000000000000000e+00  0.0000000000000000e+00  0.0000000000000000e+00  0.0000000000000000e+00  0.0000000000000000e+00  3.7634023503392428e-05  3.7735072665293931e-05  3.7839426276683197e-05  3.7904102733299971e-05  3.7975526104172503e-05  3.8013209827888832e-05  3.8041716084018983e-05  3.8045013084686437e-05  3.8000105957117031e-05  3.7987384520896692e-05  3.7980016655933203e-05  3.7975281318730194e-05  3.7966817440617469e-05  3.7965059457570357e-05  3.7957015756506264e-05  3.7937275843512616e-05  3.7917106496256952e-05  3.7880487160102212e-05  3.7823010320344738e-05  3.7786761551307049e-05  3.7741803533303219e-05  3.7680339741864021e-05  3.7597499101115613e-05  3.7523045522404707e-05  3.7424714158032413e-05  3.7321196262542395e-05  3.7263892570731537e-05  3.7223558665607312e-05  3.7155040777693924e-05  3.7168501190149699e-05  3.7172620516397253e-05  3.7197049804429383e-05  3.7243407154688425e-05  3.7271307232691378e-05  3.7301996658187614e-05  3.7319871584738958e-05  3.7329188663171993e-05  3.7320292558259236e-05  3.7327409454108474e-05  3.7331228917010977e-05  3.7342126766534603e-05  3.7322643138740505e-05  3.7316617100335329e-05  3.7276457712558468e-05  3.7262342012046122e-05  3.7212085217254865e-05  3.7165472685050919e-05  3.7102392785373520e-05  3.7089788786421288e-05  3.7103246540133503e-05  3.7136334735778712e-05  3.7177002341059699e-05  3.7192363083536516e-05  3.7189323432561609e-05  3.7182287966724655e-05  3.7196536299451985e-05  3.7180987957390694e-05  3.7186710681758545e-05  3.7240980931278820e-05  3.7301620483744484e-05  3.7375294916712037e-05  3.7427163056477018e-05  3.7870715230078222e-05  3.7952756521892899e-05  3.8370254355895199e-05  3.8482533341800447e-05  3.8190268545678877e-05  3.7973356938429501e-05  3.7969783704746032e-05  3.7970950663142687e-05  3.8058901465338656e-05  3.8311435018567040e-05  3.7851647264224044e-05  3.7903472561184939e-05  3.8474393978778107e-05  3.8438353997953476e-05  3.7878557237225586e-05  3.8038373746872451e-05  3.7940013191159298e-05  3.8219233221158471e-05  3.7825803037647722e-05  3.8432457884448084e-05  3.7984639771337315e-05  3.8271716600755060e-05  3.8447328561299749e-05  3.7806957372820001e-05  3.7954390018069066e-05  3.8170296652248565e-05  3.8173243678909735e-05  3.8340428972826467e-05  3.8344962977635977e-05  3.8483679534670881e-05  3.8523471551571042e-05  3.8492128207149795e-05  3.8742230048577738e-05  3.8671528420839660e-05  3.8882120983119571e-05  3.8616553475365194e-05  3.8987381673196681e-05  3.8727309541314195e-05  3.9002574688691522e-05  3.8735453944043468e-05  3.8937409497586580e-05  3.8439945950737394e-05  3.8517616352971256e-05  3.8759884153782055e-05  3.8577927541007373e-05  3.8707919372154037e-05  3.8468427301342067e-05  3.8556937044359242e-05  3.8357537065135175e-05  3.8322618528438344e-05  3.8348556734015910e-05  3.8540637323650784e-05  3.8723641009952178e-05  3.8782480967481007e-05  3.8974187189337317e-05  3.8810133264350302e-05  3.8919168805708382e-05  3.8567298667800458e-05  3.8358902323058896e-05  3.8531574292217352e-05  3.9115372534167666e-05  3.9038264816861298e-05  3.8866350142603913e-05  3.8863792030667435e-05  3.9036653608648511e-05  3.8821720318615505e-05  3.8921298230483002e-05  3.8656540937033492e-05  3.8637212049460615e-05  3.8892966394054806e-05  3.8606670091595028e-05  3.8655048220742363e-05  3.8779650613695917e-05  3.8466180562242486e-05  3.8337734053187777e-05  3.8908147617494699e-05  3.8306575511134045e-05  3.8220558802944940e-05  3.8176315909316435e-05  3.8162947420811310e-05  3.8658224372602273e-05  3.8248189152122063e-05  3.8858226725362788e-05  3.8155455312683345e-05  3.8498004915456500e-05  3.8172636898468751e-05  3.8122320432204620e-05  3.7994113246631232e-05  3.8735461066520447e-05  3.8696148072514770e-05  3.8721751827455189e-05  3.8607253036009102e-05  3.8660945794680671e-05  3.8758909469428164e-05  3.8604932103550016e-05  3.8506766117986413e-05  3.8516596805812460e-05  3.8136453649535894e-05  3.8470743469085242e-05  3.8347286659062438e-05  3.8386086674589741e-05  3.8287624522009046e-05  3.8559240264320485e-05  3.8417398347214035e-05  3.8530474092015082e-05  3.8643788368529607e-05  3.8426496927939364e-05  3.8356108976165362e-05  3.8208973904099365e-05  3.8176203050993583e-05  3.8081188527638457e-05  3.8171766364083939e-05  3.8020000548325713e-05  3.8078297489058558e-05  3.8277421332345545e-05  3.8061858098722890e-05  3.8037927979172233e-05  3.8395908170589676e-05  3.9028953507669278e-05  3.8359118511846526e-05  3.8690082300908253e-05  3.9130019602417264e-05  3.8499436372448137e-05  3.8222333001348265e-05  3.8088982269498601e-05  3.8312736833680545e-05  3.8420925872157190e-05  3.8330612205150107e-05  3.8081360568840996e-05  3.9167008334114465e-05  3.8025748762707513e-05  3.7967907652561357e-05  3.8167404893854659e-05  3.8089219951008227e-05  3.7971435674411620e-05  3.9083776250504154e-05  3.7892405139327525e-05  3.7854262941533117e-05  3.7981565437480144e-05  3.8457740950041212e-05  3.8464181254976702e-05  3.7957469029222534e-05  3.8139712983381545e-05  3.8451415302917627e-05  3.8366116496625570e-05  3.8469752574487158e-05  3.8616656274415953e-05  3.8588796811348562e-05  3.7961452192147074e-05  3.8043039817086390e-05  3.8246866516745638e-05  3.8432115538409529e-05  3.7955546093931710e-05  3.7793198027480267e-05  3.8704175646274246e-05  3.8217005573889945e-05  3.8128296904563453e-05  3.7922526827734880e-05  3.8501218911598853e-05  3.8397212127874496e-05  3.8568758363658635e-05  3.7975593526914948e-05  3.8455632595652290e-05  3.8806807432510366e-05  3.8627055977451029e-05  3.8021356082963470e-05  3.8032376763196160e-05  3.8093605670424563e-05  3.8244835633920480e-05  3.8088926743926193e-05  3.8246621686939375e-05  3.8246117590094142e-05  3.9108169045849786e-05  3.8299922768358829e-05  3.8424358836769899e-05  3.7788607720338054e-05  3.8311050752505395e-05  3.8213486014797121e-05  3.8018678446786788e-05  3.8822154827039639e-05  3.9085550911220766e-05  3.7829618381326173e-05  3.8424192363315120e-05  3.7923959952295581e-05  3.8179100970542326e-05  3.8793868683468717e-05  3.7878387671882571e-05  3.9043195015899614e-05  3.8223639484889023e-05  3.8549912377766348e-05  3.8302218277870768e-05  3.9160424046226841e-05  3.8114489326102269e-05  3.8139140094597485e-05  3.8585297575958101e-05  3.7945709307048010e-05  3.7868316654935025e-05  3.8510246303934444e-05  3.8214050014947679e-05  3.7985650484739745e-05  3.7835686818288345e-05  3.7733402803557842e-05  3.8425456212545266e-05  3.8666895860250483e-05  3.7982640620872847e-05  3.7911336261005934e-05  3.8542904293220652e-05  3.8206966703715930e-05  3.8331540662398616e-05  3.8104542495183405e-05  3.8201393603866604e-05  3.8618423217321663e-05  3.8855480240853723e-05  3.8218276232186504e-05  3.7883669675699832e-05  3.8316448822382590e-05  3.7943541378563011e-05  3.8056553244397068e-05  3.9206324025367902e-05  3.8331786223766358e-05  3.8379587806441982e-05  3.7717784885101111e-05  3.9036350980807294e-05  3.8370995637798573e-05  3.8150904704245275e-05  3.8518432878096567e-05  3.8452915963366905e-05  3.8440646158442566e-05  3.8537899283963255e-05  3.8525120546250182e-05  3.8067632300997341e-05  3.8571431146785876e-05  3.8475380099928793e-05  3.8282949602231399e-05  3.8077727773203465e-05  3.8537483991870724e-05  3.8268068020200936e-05  3.8142291977099082e-05  3.8388177402411140e-05  3.8546054588396574e-05  3.8704008395880841e-05  3.8548761979045722e-05  3.7761526787327742e-05  3.7978006884244674e-05  3.8310583276998861e-05  3.8474717131848003e-05  3.9063667471630716e-05  3.8589326472460529e-05  3.8476716567200090e-05  3.8342837908218978e-05  3.8743721905157077e-05  3.8234928466427609e-05  3.8305657985665146e-05  3.8333487469565900e-05  3.8772882390859213e-05  3.8315659365414504e-05  3.5800415662736282e-05  3.6070674541057476e-05  3.6443749890340934e-05  3.6411819282774680e-05  3.6761312790817393e-05  3.5588399734530936e-05  3.5747270068525772e-05  3.5186956319975884e-05  3.5702800752507641e-05  3.6574963692026460e-05  3.6334945954830568e-05  3.6418130771746353e-05  3.7117193801341461e-05  3.5877323669631247e-05  3.5808449937398334e-05  2.0067169143112401e-06  2.6926009099898072e-06  3.6857525409879981e-05  3.5713853535368484e-05  3.3485083894961022e-06  4.0404265289964750e-06  3.8076716164505495e-06  3.6908751588297532e-05  3.6841343317118670e-06  4.0561329739839390e-06  3.6126971597861776e-05  3.5648515762213674e-05  5.9415256605663662e-06  3.5441695274021280e-05  2.7015787652276296e-06  4.2846876254724175e-06  3.5777913492816228e-05  3.5701165396496211e-05  3.5965456667150586e-05  5.8701418304589134e-06  5.6319207639942831e-06  7.5371158147122024e-06  5.8485183279546706e-06  3.4992427173981178e-05  6.0424080673164503e-06  6.7108856613520175e-06  5.8753013787445809e-06  7.2314692299623313e-06  8.3070966322669332e-06  3.4625211020924100e-06  1.9226547342976933e-06  1.3352203892227594e-06  3.0821000472548476e-06  2.3048096036174262e-06  8.7480427950412262e-06  9.2777360659839643e-06  1.1301006668663513e-06  1.9371072705189131e-06  2.2677908994965216e-06  2.2642969795871355e-06  3.4811767487911239e-05  3.1640385204218561e-05  3.1094420623005106e-05  3.1747889931094101e-05  2.7275299945716883e-05  2.6247995781357034e-05  2.1983405820658520e-05  2.9752203099077160e-05  2.5265290238555699e-05  2.7671088908188920e-05  2.2689269074136510e-05  2.2614094943292375e-05  2.5782767937965749e-05  1.9571203616126129e-05  2.1796986439016262e-05  2.6888949792546577e-05  2.4128686449841868e-05  2.8010544077992225e-05  2.4125699077268682e-05  1.9713959682017308e-05  2.0213795483162598e-05  2.5319435162208086e-05  2.0827873034586981e-05  2.5078605539345466e-05  2.0886797586787207e-05  2.5302030550441408e-05  2.0494182368578640e-05  1.6676753369110965e-05  2.4754372167377703e-05  1.9581449830306373e-05  2.2838407534196345e-05  1.7954929270474235e-05  2.0868421528829282e-05  1.4970702822631469e-05  1.6391471175472932e-05  1.3199943546065913e-05  2.5803201552590803e-05  2.4432588185466098e-05  1.8692800671365868e-05  2.1584240771932335e-05  3.1354429549571156e-05  2.9123077868460160e-05  2.9068840242261595e-05  2.7993805378196369e-05  1.6094100917384498e-05  1.8941064984122901e-05  2.4548139499989173e-05  2.1887285882502877e-05  2.7406826945439447e-05  2.5051754443377608e-05  1.8328540645539562e-05  2.1223886630741702e-05  2.7611389427127444e-05  2.5037116028427315e-05  1.8495645775952737e-05  2.1342847185417088e-05  2.6795600074257523e-05  2.3415666109642168e-05  2.7951051995360736e-05  2.5352555217875253e-05  2.9316045210589963e-05  2.5541341816964017e-05  2.8970309952060402e-05  2.5234362285057700e-05  2.8643467632166310e-05  2.4117690062069240e-05  2.6906071156950320e-05  2.2379699201922964e-05  2.4832638886759037e-05  2.0094446624725468e-05  2.2182711721652722e-05  1.7612604954230793e-05  1.5302702968778467e-05  2.1071896264708987e-05  2.7387598938208671e-05  2.3826023704255307e-05  1.8947978311440407e-05  2.0370402343152440e-05  2.6647077674325902e-05  2.1706865661347023e-05  2.6895941361450436e-05  2.2324231032680673e-05  1.2899911844392059e-05  1.5106632970544875e-05  2.7278424098553586e-05  2.2497286771045385e-05  2.8208055666432792e-05  2.2563067440532021e-05  2.8405516296130370e-05  2.2469469603159755e-05  2.8164149649727015e-05  2.1995873614572897e-05  2.6773431731165815e-05  2.1202232636496023e-05  2.6694261836382534e-05  2.0500442965872648e-05  2.5483417494116013e-05  1.9115227382170458e-05  2.2965892398910493e-05  1.7154290798376067e-05  2.0526048276941862e-05  1.4984454375886289e-05  1.7817270622395789e-05  2.3208351427616773e-05  1.9962960179069534e-05  1.4959785711712852e-05  1.6457331008254303e-05  2.1143601223396386e-05  1.7092513571580589e-05  2.1452711483561008e-05  1.6954332766514851e-05  2.0929646667383940e-05  1.6157904373935977e-05  1.9683544006257184e-05  1.2682736494489835e-05  2.5598026650299251e-05  1.4873101447189240e-05  1.7918374965046744e-05  2.3183464028529893e-05  2.0774042040919382e-05  1.6166531067957894e-05  2.8369887251178197e-05  1.5230851501076063e-05  1.8163520790512747e-05  2.3697154732019576e-05  2.0723039523530415e-05  1.5028479534939620e-05  1.7476232027124517e-05  2.3361199540797292e-05  2.0045344146520250e-05  2.6494050878247088e-05  2.2702752784031081e-05  1.6893255520960411e-05  2.0236872690683336e-05  1.3964236402421175e-05  1.6420277585038094e-05  2.1974205809702088e-05  1.8553294902573380e-05  2.3868264590545697e-05  2.0553080381750221e-05  1.5396175686851341e-05  1.7006261424232633e-05  2.1948651970022736e-05  1.8007441588638674e-05  2.2731607327247737e-05  1.8548449809282330e-05  1.4208743515806005e-05  1.4392225526912003e-05  1.8553273175537621e-05  1.0629391313774911e-05  1.4153549735114951e-05  1.8076711803508243e-05  1.2409918775260585e-05  2.2822466497926093e-05  2.1958684098604196e-05  1.7258572576244081e-05  2.1847780712172888e-05  2.6795975875281852e-05  2.7352403170674145e-05  2.7371762948031801e-05  1.7059130262986874e-05  1.0725272743249685e-05  1.0723308003956916e-05  1.2353942965263651e-05  8.2844276028511027e-06  3.1328150112105738e-05  2.0058862779299732e-05  1.6170916192948388e-05  2.0184428367369857e-05  1.2425743344695605e-05  3.1359416856184671e-05  2.7120940159702061e-05  1.7027469154311159e-05  2.5572468676022642e-05  2.3442956074716423e-05  1.1665731936295325e-05  1.1870085191561301e-05  9.1564169914842500e-06  2.8921494020563528e-05  3.1534728961496499e-05  3.0614298825773447e-05  1.1202859531846408e-05  1.7250151786235591e-05  1.0298589420305836e-05  7.1602552976457718e-06  7.4090530028394362e-06  1.3957983150707281e-05  4.7578239375839347e-06  8.5721408384941130e-06  8.7628586627666832e-06  1.4548369941024869e-05  1.3568218444167592e-05  4.7675666653649149e-06  7.0702575667536115e-06  1.0720212808356820e-05  1.1916242247031790e-05  8.2510317292941556e-06  8.9557282138753478e-06  6.7215864635206354e-06  3.1049115159298473e-05  3.0914157390626447e-05  3.0257460026717198e-05  3.2388035640146205e-05  3.1976616840154198e-05  2.9008157778105404e-05  3.0942990949009261e-05  1.7340729771294325e-05  1.6044976789374429e-05  3.0830028140395858e-05  9.8044364385196724e-06  1.7894949707659135e-05  3.2262943430237894e-05  3.2031258045301441e-05  8.1702063911930542e-06  4.2655249360010324e-06  3.0747696632318470e-05  3.2741837943990288e-05  3.1911806430867694e-05  3.4084241838380519e-05  3.0563241576972455e-05  3.3728667104600753e-05  6.6097102278924673e-06  5.0113541038662191e-06  3.1039182095259287e-05  1.4992402620291371e-05  1.3940629216055522e-05  3.0213641850810725e-05  1.5755699249340726e-05  1.0378355537110326e-05  1.0692894647087748e-05  9.4969328505389349e-06  3.6433155312610634e-05  3.4278872790843856e-05  3.4431525897149378e-05  3.3790921017679935e-05  3.0971541303562323e-05  3.4580376502575682e-05  3.1231277513474988e-05  3.1611594498776196e-05  3.2172217331923511e-05  2.9408972012533092e-05  3.2008760964463842e-05  3.0585307146871982e-05  2.9389102539814133e-05  3.0461203774206566e-05  2.7223908421373234e-05  3.2257969798853744e-05  3.6101701605684166e-05  3.5648004267728567e-05  3.2530315657476315e-05  3.1730293663186402e-05  3.4725143899650744e-05  3.3901270205825155e-05  3.6034087560268858e-05  3.0401056530451295e-06  3.5273418107510385e-05  3.6182008604015226e-05  6.5739823900923630e-06  3.1855706595592860e-05  2.7087694969404195e-05  3.0809305792858540e-05  5.4002808091378164e-06  2.6416305392814423e-05  5.2932752325597801e-06  6.0763951265996793e-06  9.1734225808601089e-06  5.4644018720078788e-06  8.9551121026926308e-06  3.6143809322709520e-05  3.3952926892458961e-05  3.3679514036215720e-05  3.3004097332651383e-05  3.0548343673604948e-05  3.1044242385851722e-05  3.4728619143823460e-05  3.1586731429228977e-05  3.0016113177962389e-05  4.7379865392465660e-06  2.3615520471217357e-05  3