<?xml version="1.0"?>
<VTKFile type="UnstructuredGrid"  version="0.1"  >
<UnstructuredGrid>
<Piece  NumberOfPoints="1078" NumberOfCells="2058">
<Points>
<DataArray  type="Float64"  NumberOfComponents="3"  format="ascii">0 0 0  0 1 0  1 1 0  1 0 0  1.1 -0.1 0  -0.1 -0.1 0  1.1 1.1 0  -0.1 1.1 0  0.45 0.5 0  0 0.9499999999997918 0  0 0.8999999999995836 0  0 0.8499999999996529 0  0 0.7999999999999998 0  0 0.7500000000003466 0  0 0.7000000000006934 0  0 0.6500000000010401 0  0 0.6000000000013869 0  0 0.5500000000017335 0  0 0.5000000000020587 0  0 0.4500000000018723 0  0 0.4000000000016644 0  0 0.3500000000014564 0  0 0.3000000000012483 0  0 0.2500000000010403 0  0 0.2000000000008322 0  0 0.1500000000006241 0  0 0.100000000000416 0  0 0.05000000000020799 0  0.04999999999989965 0 0  0.09999999999981467 0 0  0.1499999999997036 0 0  0.1999999999995579 0 0  0.2499999999994121 0 0  0.2999999999992664 0 0  0.3499999999991206 0 0  0.3999999999989749 0 0  0.4499999999988292 0 0  0.4999999999986943 0 0  0.5499999999988151 0 0  0.5999999999989468 0 0  0.6499999999990784 0 0  0.69999999999921 0 0  0.7499999999993417 0 0  0.7999999999994734 0 0  0.8499999999996051 0 0  0.8999999999997368 0 0  0.9499999999998684 0 0  1 0.04999999999989965 0  1 0.09999999999981467 0  1 0.1499999999997036 0  1 0.1999999999995579 0  1 0.2499999999994121 0  1 0.2999999999992664 0  1 0.3499999999991206 0  1 0.3999999999989749 0  1 0.4499999999988292 0  1 0.4999999999986943 0  1 0.5499999999988151 0  1 0.5999999999989468 0  1 0.6499999999990784 0  1 0.69999999999921 0  1 0.7499999999993417 0  1 0.7999999999994734 0  1 0.8499999999996051 0  1 0.8999999999997368 0  1 0.9499999999998684 0  0.9499999999997918 1 0  0.8999999999995836 1 0  0.8499999999996529 1 0  0.7999999999999998 1 0  0.7500000000003466 1 0  0.7000000000006934 1 0  0.6500000000010401 1 0  0.6000000000013869 1 0  0.5500000000017335 1 0  0.5000000000020587 1 0  0.4500000000018723 1 0  0.4000000000016644 1 0  0.3500000000014564 1 0  0.3000000000012483 1 0  0.2500000000010403 1 0  0.2000000000008322 1 0  0.1500000000006241 1 0  0.100000000000416 1 0  0.05000000000020799 1 0  -0.1 1.05000000000004 0  -0.1 1.000000000000079 0  -0.1 0.9500000000001624 0  -0.1 0.9000000000003032 0  -0.1 0.850000000000444 0  -0.1 0.8000000000005848 0  -0.1 0.7500000000007256 0  -0.1 0.7000000000008665 0  -0.1 0.6500000000010508 0  -0.1 0.6000000000012352 0  -0.1 0.5500000000014196 0  -0.1 0.500000000001539 0  -0.1 0.4500000000014195 0  -0.1 0.4000000000013 0  -0.1 0.3500000000011588 0  -0.1 0.3000000000010178 0  -0.1 0.2500000000008986 0  -0.1 0.2000000000007579 0  -0.1 0.1500000000006174 0  -0.1 0.1000000000005272 0  -0.1 0.05000000000040083 0  -0.1 2.671196597248127e-13 0  -0.1 -0.0499999999998666 0  -0.0500000000000906 -0.1 0  -1.730560139634463e-13 -0.1 0  0.04999999999975802 -0.1 0  0.09999999999961506 -0.1 0  0.1499999999994613 -0.1 0  0.199999999999302 -0.1 0  0.2499999999991446 -0.1 0  0.2999999999990088 -0.1 0  0.3499999999988296 -0.1 0  0.3999999999986936 -0.1 0  0.4499999999985143 -0.1 0  0.4999999999984002 -0.1 0  0.5499999999985247 -0.1 0  0.5999999999986493 -0.1 0  0.6499999999987955 -0.1 0  0.6999999999989417 -0.1 0  0.7499999999990659 -0.1 0  0.7999999999992116 -0.1 0  0.8499999999993573 -0.1 0  0.8999999999994526 -0.1 0  0.949999999999584 -0.1 0  0.9999999999997226 -0.1 0  1.049999999999861 -0.1 0  1.1 -0.0500000000000906 0  1.1 -1.730560139634463e-13 0  1.1 0.04999999999975802 0  1.1 0.09999999999961506 0  1.1 0.1499999999994613 0  1.1 0.199999999999302 0  1.1 0.2499999999991446 0  1.1 0.2999999999990088 0  1.1 0.3499999999988296 0  1.1 0.3999999999986936 0  1.1 0.4499999999985143 0  1.1 0.4999999999984002 0  1.1 0.5499999999985247 0  1.1 0.5999999999986493 0  1.1 0.6499999999987955 0  1.1 0.6999999999989417 0  1.1 0.7499999999990659 0  1.1 0.7999999999992116 0  1.1 0.8499999999993573 0  1.1 0.8999999999994526 0  1.1 0.949999999999584 0  1.1 0.9999999999997226 0  1.1 1.049999999999861 0  1.05000000000004 1.1 0  1.000000000000079 1.1 0  0.9500000000001624 1.1 0  0.9000000000003032 1.1 0  0.850000000000444 1.1 0  0.8000000000005848 1.1 0  0.7500000000007256 1.1 0  0.7000000000008665 1.1 0  0.6500000000010508 1.1 0  0.6000000000012352 1.1 0  0.5500000000014196 1.1 0  0.500000000001539 1.1 0  0.4500000000014195 1.1 0  0.4000000000013 1.1 0  0.3500000000011588 1.1 0  0.3000000000010178 1.1 0  0.2500000000008986 1.1 0  0.2000000000007579 1.1 0  0.1500000000006174 1.1 0  0.1000000000005272 1.1 0  0.05000000000040083 1.1 0  2.671196597248127e-13 1.1 0  -0.0499999999998666 1.1 0  0.4745627155412561 0.4979658845976656 0  0.4950518285166059 0.4855573497244656 0  0.4999049928296436 0.4616188779834038 0  0.4999416100186353 0.4369305106878516 0  0.4992063803530374 0.4122537295451063 0  0.4973369912776078 0.3876382608828895 0  0.4938799492255223 0.3631985225279867 0  0.4879793387199136 0.3392426188426588 0  0.477708527829928 0.3168733523934912 0  0.4590714687604882 0.301404724837102 0  0.434732780228735 0.3022762989845696 0  0.41125555005019 0.3098702632470292 0  0.3884680402211078 0.3193637173486848 0  0.3661420054562071 0.3299011319871626 0  0.3441795831188528 0.3411780445066411 0  0.3225396544917435 0.3530624832975365 0  0.301215464402485 0.3655046196410723 0  0.2802311253773791 0.3785115313273795 0  0.2596524751657515 0.3921505807115663 0  0.2396257266562892 0.4065860116455786 0  0.2205171769333943 0.4222095709991691 0  0.2037978766498827 0.4402946996369004 0  0.2078087354862039 0.4611241985337589 0  0.2302246550721581 0.4712872327621356 0  0.2540170674673913 0.4778513776835257 0  0.2781896321779924 0.4828648162257614 0  0.3025388098521794 0.4869426971314142 0  0.3269901839377751 0.4903579357693211 0  0.3515089775387092 0.4932512724458387 0  0.3760767857581023 0.495694413889107 0  0.4006835645647465 0.4977074124167739 0  0.4253247457275192 0.4992401053758528 0  0.4778594566747522 0.401442223102556 0  0.3642031605696663 0.3551455304476633 0  0.3931253119911016 0.4749663001317488 0  0.301391087815591 0.3891909418324636 0  0.3405191146680043 0.4716067291990176 0  0.4085088128259829 0.3358218225302407 0  0.4383199257010764 0.478268034996534 0  0.2933158383126336 0.4647493042568133 0  0.4705011287186628 0.3555758092930785 0  0.262046410803845 0.4161288454709087 0  0.478296621298624 0.4481523765235133 0  0.4509985757435829 0.3218118933227149 0  0.2476156101392002 0.4542878672072901 0  0.2254440382838642 0.4465078410918185 0  0.4767034898580974 0.4722214708558077 0  0.4538062455404542 0.4595381477025817 0  0.4590454097941081 0.4338641038279472 0  0.4365261566776522 0.4419487466470775 0  0.4400546699554884 0.4183850274405355 0  0.4174526499407784 0.4262663052266684 0  0.4216449604545715 0.4019633174161013 0  0.3985655157976514 0.4103762535778908 0  0.4028015094748328 0.386040885796719 0  0.3796547466541822 0.3945517710442402 0  0.3754336355219892 0.418849626595026 0  0.356480706262351 0.4030570620938904 0  0.425950910278646 0.377520368681432 0  0.352548564952613 0.4270242418641961 0  0.3343638539532 0.4116745963430576 0  0.3307714015247585 0.4344618615043583 0  0.3711008730457676 0.44307135827674 0  0.3392287173618115 0.3881401631227276 0  0.3124702543322179 0.4200967859847136 0  0.4114117750559009 0.4522354727907684 0  0.4064787425095928 0.3615498651030583 0  0.4278036338942951 0.3527711224825818 0  0.4433219400524784 0.3950998567471496 0  0.3943955331988769 0.4346545308483178 0  0.4509537719158622 0.3712162011600971 0  0.3835561940930367 0.3704375866309364 0  0.3609814799060368 0.3792631547343511 0  0.3672404946492186 0.4689805786970846 0  0.3168649185378783 0.4686708691728355 0  0.4165076876140927 0.4771472337656302 0  0.2810048199582057 0.4016672236312642 0  0.2870147599064629 0.4248956534750974 0  0.3862261592792656 0.345369942341291 0  0.3080157283408111 0.4448742769214047 0  0.2703248330441222 0.4608735987556387 0  0.2432762156876432 0.4307838757262447 0  0.3419587485632274 0.365176024313821 0  0.4755444649001365 0.3782660524650019 0  0.4791355219669999 0.4243141036751382 0  0.3497623534188233 0.4496360836027524 0  0.2644083313092664 0.4389831179427027 0  0.4674735929810542 0.3363935811516868 0  0.321126160836723 0.3763114756635082 0  0.4305799577726617 0.3285026054122711 0  0.3885900461240224 0.4546378933343884 0  0.4499447049192908 0.3463796929084879 0  0.4603887212884598 0.4113584096059502 0  0.2846158981826593 0.4468751902703314 0  0.3185490241148747 0.3982120658855813 0  0.4305939059509261 0.4609622322386688 0  0.4581760366322798 0.4817922291542369 0  0.3291867032980551 0.4538499640800737 0  0.4616136709663378 0.3914765486161509 0  0.2982158265402535 0.4072602982361838 0  0.5090313857056089 0.3461826794894803 0  0.5207022197779424 0.425978498220816 0  0.311713814997743 0.5079795496359276 0  0.4643475147610384 0.5187461731151921 0  0.9490142133840682 0.6783797956691668 0  0.6216214340861579 0.9593311716324814 0  0.3866368735689306 0.5180109320576665 0  0.9587660418685475 0.5227189777819765 0  0.9506648297369857 0.2707104918276887 0  0.2748561214832899 0.9505349779686312 0  0.3011023844413945 0.3408163145155499 0  0.3683228269886306 0.3041092451381056 0  0.4250000000017684 0.9566987298106073 0  0.2375845333238263 0.4917938393817739 0  0.04958979007524958 0.7296760041911728 0  0.6770568288393941 0.04297506912771516 0  0.2356184911970147 0.382214647822909 0  0.5173645605066 0.4787597690959727 0  0.7758951512500023 0.9594095551159301 0  0.2231051570648525 0.03844005936112258 0  0.04245669343147786 0.2262855512044744 0  0.1978849085057508 0.4165656761206133 0  0.5283655363925812 0.04593193222645212 0  0.3779250168850821 0.04052667979493219 0  0.8249999999995391 0.04330127018933595 0  0.1867223140552792 0.4539791991101284 0  0.4194429089130199 0.2881270580811818 0  0.04537506353618583 0.5748409264035662 0  0.9599193315071579 0.8266072906869175 0  0.03997307772613013 0.3242713413778047 0  0.5133551942209446 0.5017228266917565 0  0.5357944461513422 0.4951955469680229 0  0.5325113093200678 0.5177463975824047 0
[...]
<PointData  Scalars="v"> 
<DataArray  type="Float64"  Name="v"  format="ascii">0.0000000000000000e+00  0.0000000000000000e+00  0.0000000000000000e+00  0.0000000000000000e+00  0.0000000000000000e+00  0.0000000000000000e+00  0.0000000000000000e+00  0.0000000000000000e+00  2.4650014914376368e-03  0.0000000000000000e+00  0.0000000000000000e+00  0.0000000000000000e+00  0.0000000000000000e+00  0.0000000000000000e+00  0.0000000000000000e+00  0.0000000000000000e+00  0.0000000000000000e+00  0.0000000000000000e+00  0.0000000000000000e+00  0.0000000000000000e+00  0.0000000000000000e+00  0.0000000000000000e+00  0.0000000000000000e+00  0.0000000000000000e+00  0.0000000000000000e+00  0.0000000000000000e+00  0.0000000000000000e+00  0.0000000000000000e+00  0.0000000000000000e+00  0.0000000000000000e+00  0.0000000000000000e+00  0.0000000000000000e+00  0.0000000000000000e+00  0.0000000000000000e+00  0.0000000000000000e+00  0.0000000000000000e+00  0.0000000000000000e+00  0.0000000000000000e+00  0.0000000000000000e+00  0.0000000000000000e+00  0.0000000000000000e+00  0.0000000000000000e+00  0.0000000000000000e+00  0.0000000000000000e+00  0.0000000000000000e+00  0.0000000000000000e+00  0.0000000000000000e+00  0.0000000000000000e+00  0.0000000000000000e+00  0.0000000000000000e+00  0.0000000000000000e+00  0.0000000000000000e+00  0.0000000000000000e+00  0.0000000000000000e+00  0.0000000000000000e+00  0.0000000000000000e+00  0.0000000000000000e+00  0.0000000000000000e+00  0.0000000000000000e+00  0.0000000000000000e+00  0.0000000000000000e+00  0.0000000000000000e+00  0.0000000000000000e+00  0.0000000000000000e+00  0.0000000000000000e+00  0.0000000000000000e+00  0.0000000000000000e+00  0.0000000000000000e+00  0.0000000000000000e+00  0.0000000000000000e+00  0.0000000000000000e+00  0.0000000000000000e+00  0.0000000000000000e+00  0.0000000000000000e+00  0.0000000000000000e+00  0.0000000000000000e+00  0.0000000000000000e+00  0.0000000000000000e+00  0.0000000000000000e+00  0.0000000000000000e+00  0.0000000000000000e+00  0.0000000000000000e+00  0.0000000000000000e+00  0.0000000000000000e+00  0.0000000000000000e+00  0.0000000000000000e+00  0.0000000000000000e+00  0.0000000000000000e+00  0.0000000000000000e+00  0.0000000000000000e+00  0.0000000000000000e+00  0.0000000000000000e+00  0.0000000000000000e+00  0.0000000000000000e+00  0.0000000000000000e+00  0.0000000000000000e+00  0.0000000000000000e+00  0.0000000000000000e+00  0.0000000000000000e+00  0.0000000000000000e+00  0.0000000000000000e+00  0.0000000000000000e+00  0.0000000000000000e+00  0.0000000000000000e+00  0.0000000000000000e+00  0.0000000000000000e+00  0.0000000000000000e+00  0.0000000000000000e+00  0.0000000000000000e+00  0.0000000000000000e+00  0.0000000000000000e+00  0.0000000000000000e+00  0.0000000000000000e+00  0.0000000000000000e+00  0.0000000000000000e+00  0.0000000000000000e+00  0.0000000000000000e+00  0.0000000000000000e+00  0.0000000000000000e+00  0.0000000000000000e+00  0.0000000000000000e+00  0.0000000000000000e+00  0.0000000000000000e+00  0.0000000000000000e+00  0.0000000000000000e+00  0.0000000000000000e+00  0.0000000000000000e+00  0.0000000000000000e+00  0.0000000000000000e+00  0.0000000000000000e+00  0.0000000000000000e+00  0.0000000000000000e+00  0.0000000000000000e+00  0.0000000000000000e+00  0.0000000000000000e+00  0.0000000000000000e+00  0.0000000000000000e+00  0.0000000000000000e+00  0.0000000000000000e+00  0.0000000000000000e+00  0.0000000000000000e+00  0.0000000000000000e+00  0.0000000000000000e+00  0.0000000000000000e+00  0.0000000000000000e+00  0.0000000000000000e+00  0.0000000000000000e+00  0.0000000000000000e+00  0.0000000000000000e+00  0.0000000000000000e+00  0.0000000000000000e+00  0.0000000000000000e+00  0.0000000000000000e+00  0.0000000000000000e+00  0.0000000000000000e+00  0.0000000000000000e+00  0.0000000000000000e+00  0.0000000000000000e+00  0.0000000000000000e+00  0.0000000000000000e+00  0.0000000000000000e+00  0.0000000000000000e+00  0.0000000000000000e+00  0.0000000000000000e+00  0.0000000000000000e+00  0.0000000000000000e+00  0.0000000000000000e+00  0.0000000000000000e+00  0.0000000000000000e+00  0.0000000000000000e+00  0.0000000000000000e+00  0.0000000000000000e+00  0.0000000000000000e+00  0.0000000000000000e+00  0.0000000000000000e+00  0.0000000000000000e+00  0.0000000000000000e+00  2.4930103011794138e-03  2.5106447056619315e-03  2.4814259739816972e-03  2.4589331369338804e-03  2.4395656364559594e-03  2.4205721539260383e-03  2.3997431038838548e-03  2.3745274689736589e-03  2.3418260695507354e-03  2.3034714581734047e-03  2.3028764754829691e-03  2.3054502345046463e-03  2.3034531115717362e-03  2.2976148895356187e-03  2.2869689293700101e-03  2.2714380517083127e-03  2.2505147082122331e-03  2.2224975705682146e-03  2.1868792203921326e-03  2.1409363376806321e-03  2.0805790602396487e-03  1.9807161810995312e-03  2.0062853887060253e-03  2.1275479194207106e-03  2.1973514010497348e-03  2.2501155298727694e-03  2.2933028559221739e-03  2.3311717904984887e-03  2.3633482015936315e-03  2.3932055296023848e-03  2.4185604959319671e-03  2.4425595031902568e-03  2.4042557605965871e-03  2.3275259483486986e-03  2.3859573109853718e-03  2.2774705673433396e-03  2.3310771991282980e-03  2.3448417334970394e-03  2.4202266067671705e-03  2.2705961429868812e-03  2.3759025036518330e-03  2.2224728068834720e-03  2.4303362409743598e-03  2.3505969293556076e-03  2.1980617989822383e-03  2.1477414410861805e-03  2.4427126663265296e-03  2.4228755088934336e-03  2.4133184597490828e-03  2.4048645827961469e-03  2.3959760116218135e-03  2.3856950418925482e-03  2.3785383411873114e-03  2.3670791249062548e-03  2.3613040176844011e-03  2.3484814624644742e-03  2.3520236578230690e-03  2.3317509182587261e-03  2.3704565825112614e-03  2.3335260367861629e-03  2.3125270496328482e-03  2.3139755358161599e-03  2.3558778080908036e-03  2.3137253197835963e-03  2.2904546324645806e-03  2.3922251203948247e-03  2.3544484116613208e-03  2.3595597071613727e-03  2.3876112151190901e-03  2.3724785916284675e-03  2.3795075281457805e-03  2.3442108152858928e-03  2.3304765776663880e-03  2.3592595613787727e-03  2.3043817813447973e-03  2.4054662520405878e-03  2.2522711797660923e-03  2.2594548004205312e-03  2.3380590442263938e-03  2.2893656663271647e-03  2.2373805540881896e-03  2.1908785718280435e-03  2.3125664721422266e-03  2.3920363995321779e-03  2.4175832830237217e-03  2.3355364030466512e-03  2.2252309330355437e-03  2.3645867551705347e-03  2.2959073564999162e-03  2.3498745783455529e-03  2.3752726414594588e-03  2.3654665477488611e-03  2.4028574165427486e-03  2.2563582009070163e-03  2.2942317172595992e-03  2.4091427024772100e-03  2.4375320133498092e-03  2.3160590166172346e-03  2.3942104467626836e-03  2.2717932620654330e-03  2.3994208072974812e-03  2.5038261110469601e-03  2.3248244923089333e-03  2.5438660772833018e-03  3.8472215144950994e-04  3.4344518953596744e-04  2.4487898454786873e-03  3.8012680182082089e-04  3.2146210628156369e-04  3.2020045731769893e-04  2.1735870923379323e-03  2.2115740599287907e-03  3.8007099775999446e-04  2.1148887798592706e-03  3.0751740213373516e-04  3.1716880165320394e-04  2.0336984947236102e-03  2.5631959198704566e-03  2.4387033958550271e-04  2.0357031553285904e-04  2.3158592697212859e-04  1.8736331063532606e-03  3.8577977058059596e-04  3.2055357239737045e-04  1.9226753154239767e-04  1.8059453071503475e-03  2.2307183894242741e-03  3.7161563874420076e-04  1.8861790935036736e-04  2.9091322171078180e-04  2.5971036619963938e-03  2.6300254982351313e-03  2.6579842660434385e-03  2.6696778238094764e-03  2.6858452220650461e-03  2.6758367860238034e-03  2.6763461597427013e-03  2.6445171462527663e-03  2.6258157896815520e-03  2.6547048333780987e-03  2.6393645941905765e-03  2.5801349591336922e-03  2.5998775019366390e-03  2.5619814506733498e-03  2.5016855386951016e-03  2.5084292048371095e-03  2.3853977651207827e-03  2.3625560260255207e-03  2.3794282841524974e-03  2.4861235083689409e-03  2.3378041474929842e-03  2.4335767911425441e-03  2.2645267379400170e-03  2.3519056939715222e-03  2.1647814945955847e-03  2.2430218819412132e-03  2.2212510096873248e-03  2.1831036620033957e-03  2.0376599970597471e-03  2.1027799800917720e-03  2.1409947917052975e-03  2.0174907551604808e-03  1.9639729763358304e-03  1.8784337703587042e-03  1.9298197778148535e-03  1.7771874937677007e-03  1.7101520187275865e-03  1.8723267201860470e-03  2.1293422006194809e-03  1.9428721687767875e-03  1.7271554404429481e-03  1.7232865033364275e-03  1.5012934969548233e-03  1.6012382834966010e-03  1.7384216784844537e-03  1.9146755003623928e-03  1.6791507567834763e-03  1.8054262249181049e-03  2.4030491706766880e-03  1.8507618778370132e-03  1.5976290789323771e-03  1.7860033026582127e-03  1.4324800234274127e-03  1.7025068433195381e-04  1.3150405629698391e-03  3.6847201757247934e-04  3.4657260026595415e-04  1.9429755940473479e-04  1.9241065897288254e-04  2.0520314444784074e-03  1.8206009766502799e-03  1.5985797205796126e-03  1.6134969173970876e-03  1.3740481096755047e-03  1.3374413216852906e-03  1.3874693909208089e-03  2.6747030376723211e-03  1.5486925927364215e-03  1.4206505251446700e-03  1.6143935107954734e-03  1.3971369153042542e-04  1.3204607605377125e-03  1.5456851722127826e-03  1.7573493934151217e-03  1.6170216059624213e-03  1.3893267502737719e-03  1.1499735259681916e-03  1.1456614791891394e-03  2.5518339832719299e-03  1.1040603320148690e-03  1.1068046664541818e-03  2.0341479350434650e-03  1.8437172917429533e-03  1.5559034603310916e-03  1.6238926264289335e-03  1.8958688595571373e-03  1.6603903134706384e-03  1.9193583355466550e-03  1.6662804905804753e-03  1.9125126846491313e-03  1.6343619693026488e-03  1.8679387546401305e-03  1.5771667004547778e-03  1.7890819655827582e-03  2.0531914016257281e-03  1.9574050012437249e-03  1.6870473944948232e-03  1.8365764991881376e-03  2.0764151757424287e-03  1.9418245842641223e-03  1.6927684302954691e-03  1.7794373241650559e-03  1.5285402960975730e-03  1.5844405905942134e-03  1.8170360039157774e-03  1.3416237673349377e-03  1.5979257564787258e-03  2.2579589854959054e-03  1.8061862434207540e-03  2.0405333405767775e-03  1.5712704618388083e-03  1.7542864876921157e-03  1.4945926766106396e-03  1.6656174336501614e-03  1.3624279608145131e-03  1.4100494158423677e-03  1.9379464826361952e-03  1.3855876364513298e-03  1.5733857744103087e-03  1.4980930112825652e-03  1.3202497272653141e-03  1.3663697428657599e-03  1.4929696709928817e-04  1.0317107482907862e-03  8.7785551313811921e-04  2.1406882369952585e-03  2.1891046834217978e-03  2.1303693382154357e-03  2.0301766215069872e-03  2.2014884920858080e-03  9.5534824290871752e-04  1.2795708188738924e-03  1.2643673929236164e-03  9.8838852098725809e-04  1.1664706312394719e-03  2.6462965075782401e-03  1.2482405725247406e-03  1.1742001340709024e-03  1.5050178956705865e-03  8.2682661101003392e-04  1.6574928978268109e-03  1.0369939047417611e-03  1.2560404653989598e-03  1.3972998002083680e-03  1.1939315235734694e-03  1.3389028422998545e-03  1.3219221903736143e-03  1.2593391557404144e-03  1.5007598930066883e-03  1.2922675460787740e-04  8.7209764913088789e-04  1.1354827701110964e-03  8.7704758933329033e-04  1.1162587390605241e-03  1.6128726146543398e-03  2.0564934967048547e-03  1.1605281049961178e-03  8.7146090848477244e-04  9.6154974584834979e-04  1.1824403191159224e-03  7.6396580964330327e-04  8.7322975961183936e-04  6.3223546656169345e-04  2.6515356916387758e-03  7.0083264573350278e-04  7.7537458936375670e-04  1.1547394912614158e-03  2.1531232639224133e-03  2.2709001622256970e-03  2.3235014536478818e-03  2.4202570548817301e-03  2.4497631921687369e-03  2.5247442166261135e-03  2.4941777983557142e-03  2.5243395336844946e-03  2.4505299235203231e-03  2.4989182494933567e-03  2.4305035123399852e-03  2.3552899608474129e-03  2.3443038430112162e-03  1.0910469934605946e-03  1.2356751214023421e-03  9.3454376283193556e-04  8.8671342006400582e-05  9.5323743549843761e-05  2.1407572129629173e-03  2.3135761796834000e-03  1.5133771026730200e-03  1.3499813345310976e-03  1.0740019716580528e-03  1.1820809584426020e-03  1.4528883647997395e-03  1.2829761866180957e-03  1.5805881775622758e-03  1.3678907316105519e-03  1.6207327360314315e-03  1.4139335538191390e-03  1.1602048189730462e-03  1.2018178697650913e-03  1.4438538292827852e-03  1.2205531609702698e-03  1.4398066945876594e-03  1.2058875829361749e-03  1.3987141397253798e-03  1.1534957834526734e-03  9.7308219237032475e-04  1.3208523417620221e-03  1.0613913997288666e-03  9.4367593211552967e-04  1.2020490181352220e-03  9.3102855843739645e-04  8.1448407043865304e-04  1.6976041464326224e-03  1.5764995791814770e-03  9.8061493258968873e-04  2.2782515931702510e-03  6.7807714772045091e-04  9.9497765004408472e-04  1.0358080316818664e-03  9.8147867575754501e-04  1.0474240300333277e-03  1.3648713918717628e-03  7.4554904422575031e-04  1.4819791519269645e-03  1.2610486507093584e-03  9.9143851881870553e-04  2.2404079594777679e-03  1.8128662234176125e-03  1.8499564571672076e-03  2.4643028608701029e-03  2.5799544014497950e-03  1.0080537934938720e-03  7.0289028650453664e-04  2.2024430174989746e-03  1.0676600424324315e-04  1.2119115696996498e-03  1.0022459115322730e-03  9.2534219755776009e-04  7.3699340201679379e-04  1.4069248283736214e-03  1.9801784233660948e-03  8.8092389768850061e-04  6.7772365973058166e-04  7.4101685106427639e-04  5.4943098974098085e-04  5.9485382646643728e-04  4.0579231902142829e-04  4.1099609102346330e-04  7.4285955952120726e-04  6.1204922674782780e-04  6.8675839221058149e-04  9.5883853882166843e-04  9.3938640684782838e-04  1.1787699564639559e-03  8.5692785915195461e-04  1.0671989609829344e-03  7.5043614592609678e-04  9.4295358043270142e-04  1.8123234621224419e-03  1.8054085741722717e-03  1.6091496250207290e-03  1.9770434216668147e-03  1.9567043696748902e-03  2.1077085738230809e-03  2.0871200083442724e-03  2.2094755798932504e-03  2.2009007577372891e-03  2.2972497446679375e-03  2.2925649592178622e-03  2.3724406347581609e-03  2.3783202792728875e-03  2.4398942440281941e-03  2.4490541382772755e-03  2.5018169787449545e-03  2.5065206761799280e-03  2.5534749819826068e-03  2.5521800048022352e-03  2.5954134747830453e-03  2.4202091156822632e-03  2.5712588575248210e-03  2.6127366820284307e-03  2.6274397521889826e-03  2.6480883479892731e-03  1.4264863019502754e-03  1.0361106986490416e-03  1.7373654506216195e-03  5.8748547869071196e-04  2.4096913986226434e-03  2.0904599742511691e-03  8.8543476263192890e-04  9.1016524235663476e-04  8.0881942698243314e-04  1.4692107848308517e-03  2.0797237369123344e-03  5.0725626764175932e-04  5.7964219238430608e-04  1.9010519153437511e-03  2.0147764838168709e-03  1.2643450293654396e-03  1.8048445468364319e-03  2.2107961639786381e-03  4.9262584706861957e-04  7.8720334059346119e-04  4.4804496518117975e-04  4.4823947592427960e-04  2.5268721048730741e-03  5.3791039106718791e-04  2.2416621545431280e-03  5.0210765349560866e-04  5.5928351849128229e-04  7.7140886850312837e-04  5.7704274342718813e-04  3.8159954098074337e-04  2.5043986473457644e-03  8.1215554501241070e-04  2.3978396684586215e-03  2.2813904080018418e-03  2.5805109734912705e-03  1.8749656992353581e-03  7.6709168316202100e-04  2.4221823937744873e-04  2.5231352970957466e-03  7.0481667413182126e-04  1.0020658156839352e-03  6.9649218853880994e-04  2.6527190042214179e-03  2.5420397062844717e-03  2.5597003517016117e-03  1.9845820219032938e-03  1.8241677344381221e-03  2.0637083624699382e-03  6.3193055658184480e-04  8.1287862982431830e-04  4.6965242697778666e-04  5.6063980860957202e-04  1.8856620456158646e-03  6.3372534026802613e-04  8.0244634678034235e-04  5.1428830476245248e-04  6.5233797129359689e-04  9.0338644840203648e-04  7.3021622638014966e-04  5.0845192900017956e-04  5.4840763098075386e-04  7.6185867591549320e-04  3.6504039528029435e-04  5.5260919703956307e-04  7.4939667555591952e-04  5.0291233204555132e-04  6.8799976585072302e-04  9.8195352325607566e-04  2.5514031851226137e-03  1.9624599692171793e-03  1.8267175617329024e-03  1.8967632505180073e-03  1.7113140072827014e-03  1.8332817141839834e-03  1.6691339716383045e-03  1.8751416108421996e-03  1.8341118576344687e-03  1.7584476834326891e-03  1.9629784897596879e-03  2.0329949783360517e-03  2.3512165603369892e-03  7.5786424400828463e-04  6.0046359493670870e-04  7.6211410883174563e-04  6.2043329484746522e-04  4.3258047973877828e-04  1.9685617852719718e-03  2.4369398877774119e-03  3.8549423492845696e-04  7.6699937289876079e-04  1.5136967013208863e-03  2.6663667764007816e-04  4.7319247383295165e-04  3.8180040154097458e-04  1.8348086007995371e-04  3.0742744672435085e-04  4.9579134952487821e-04  3.7142858403035390e-04  2.2326486311019376e-04  9.9493626713426764e-05  5.8799646291409131e-04  2.1361839947753270e-03  2.2831680102620984e-03  2.2823363275600037e-03  2.0054111518009719e-03  4.1930612979136731e-04  2.0908583181532686e-03  1.1809812554247259e-03  1.2850294836680444e-03  2.1993458505206800e-03  2.1853747854607398e-03  2.2906129522028379e-03  2.1212554659613718e-03  2.3143196004001719e-03  2.3202541900284143e-03  2.4651629809380161e-03  2.4406971421317538e-03  2.4595667037284759e-03  2.2970744710634340e-03  2.4351957082604549e-03  2.5669343995594384e-03  2.2511025247321688e-03  2.5994768437873901e-03  2.4915949637689988e-03  2.5952340095697227e-03  2.5135545790616013e-04  6.9633922431236927e-04  2.4126593258308078e-03  1.7945615927900526e-03  2.0202379026405177e-03  2.4766568775980835e-04  9.6371608254503221e-04  3.9089129599461308e-04  4.0611038768219342e-04  9.5765433127084360e-04  8.7764760067177996e-04  3.2308841444927375e-04  3.0014967264634622e-04  5.0170178815934455e-04  1.6572390703714543e-03  2.2083328671599579e-03  2.1928720004288208e-03  2.0715433838223805e-03  2.0777312162668995e-03  2.5278130513348945e-03  1.7413394628339686e-04  2.9236075345289835e-04  7.1252182535518440e-04  2.0334017754619466e-03  3.3689907533322549e-04  6.4048320544785172e-04  5.9922106677282668e-04  2.4550741641685722e-04  2.5857363473352213e-03  5.7568477094487491e-04  1.8396139599429564e-03  2.5802984482364813e-03  3.9582360764823843e-04  3.4518910833690252e-04  3.1312446391213605e-04  1.1063001378725824e-03  2.3172149090246231e-03  1.3455339039936898e-04  1.8174655429734469e-03  1.1575878778467043e-03  3.5201664188019187e-04  1.5594436837952795e-03  1.3749037341137275e-04  1.1663192653284507e-03  6.0480556896551265e-04  1.4711712723188675e-04  2.0351849865108177e-04  4.5437149105541098e-04  3.2377592582853026e-04  2.1612286196855707e-04  1.9581172433894805e-03  1.6621322779805470e-03  1.3851898213511583e-03  2.4563987330849359e-03  1.4823220029252253e-03  1.4623397570213802e-04  3.3340504521796240e-04  3.2292472343406096e-04  2.1221873476774556e-03  1.4919036191790836e-03  2.3617393046896197e-03  2.6215825315195721e-04  3.4604245795213955e-04  4.0673926080503733e-04  7.2722337793862380e-04  1.0758249397185898e-03  1.3227435144444000e-03  3.3625320888982911e-04  2.1067541289723438e-03  1.2324850953837896e-03  2.6267011552037504e-03  2.5203366092902682e-03  2.1296776903735846e-03  1.0519573017592810e-03  1.6319269401628468e-03  6.9951317766570877e-04  2.3724263365484765e-03  9.8544128782593592e-04  1.4512522202897705e-03  2.5770192524001926e-03  6.4986811897329048e-04  9.2963787156667655e-04  1.3683811678921840e-03  1.1889085045282181e-03  1.9344500276273254e-03  1.3806468956907413e-03  2.1973880635151816e-03  1.5104675148469786e-03  2.0537592802020452e-03  5.2486792673983867e-04  5.7045972331750197e-04  2.3076704186955682e-03  1.9256837708177346e-03  1.6898836297032770e-03  2.6082590465207928e-03  2.6443514780335881e-03  2.6735552900713912e-03  3.0774689170590461e-04  4.3964041438568504e-04  6.5740685398463813e-04  1.4871434597834234e-03  2.2200833917422182e-04  1.0079068445608459e-04  3.7616123369186178e-04  1.3625877822828969e-04  8.9695070012124666e-05  1.0909093821203947e-03  3.6578527804627099e-04  2.4130187432814579e-03  3.3424527416811686e-04  1.0763827157457017e-03  2.4754555410981122e-03  2.6857311017001633e-03  2.0483289848623261e-03  2.1388574653381197e-03  2