<?xml version="1.0"?>
<VTKFile type="UnstructuredGrid"  version="0.1"  >
<UnstructuredGrid>
<Piece  NumberOfPoints="1256" NumberOfCells="2414">
<Points>
<DataArray  type="Float64"  NumberOfComponents="3"  format="ascii">0 0 0  0 1 0  1 1 0  1 0 0  1.1 -0.1 0  -0.1 -0.1 0  1.1 1.1 0  -0.1 1.1 0  0.5064621910745203 0.5192356800127159 0  0.5996894029728643 0.7292675211054858 0  0 0.9499999999997918 0  0 0.8999999999995836 0  0 0.8499999999996529 0  0 0.7999999999999998 0  0 0.7500000000003466 0  0 0.7000000000006934 0  0 0.6500000000010401 0  0 0.6000000000013869 0  0 0.5500000000017335 0  0 0.5000000000020587 0  0 0.4500000000018723 0  0 0.4000000000016644 0  0 0.3500000000014564 0  0 0.3000000000012483 0  0 0.2500000000010403 0  0 0.2000000000008322 0  0 0.1500000000006241 0  0 0.100000000000416 0  0 0.05000000000020799 0  0.04999999999989965 0 0  0.09999999999981467 0 0  0.1499999999997036 0 0  0.1999999999995579 0 0  0.2499999999994121 0 0  0.2999999999992664 0 0  0.3499999999991206 0 0  0.3999999999989749 0 0  0.4499999999988292 0 0  0.4999999999986943 0 0  0.5499999999988151 0 0  0.5999999999989468 0 0  0.6499999999990784 0 0  0.69999999999921 0 0  0.7499999999993417 0 0  0.7999999999994734 0 0  0.8499999999996051 0 0  0.8999999999997368 0 0  0.9499999999998684 0 0  1 0.04999999999989965 0  1 0.09999999999981467 0  1 0.1499999999997036 0  1 0.1999999999995579 0  1 0.2499999999994121 0  1 0.2999999999992664 0  1 0.3499999999991206 0  1 0.3999999999989749 0  1 0.4499999999988292 0  1 0.4999999999986943 0  1 0.5499999999988151 0  1 0.5999999999989468 0  1 0.6499999999990784 0  1 0.69999999999921 0  1 0.7499999999993417 0  1 0.7999999999994734 0  1 0.8499999999996051 0  1 0.8999999999997368 0  1 0.9499999999998684 0  0.9499999999997918 1 0  0.8999999999995836 1 0  0.8499999999996529 1 0  0.7999999999999998 1 0  0.7500000000003466 1 0  0.7000000000006934 1 0  0.6500000000010401 1 0  0.6000000000013869 1 0  0.5500000000017335 1 0  0.5000000000020587 1 0  0.4500000000018723 1 0  0.4000000000016644 1 0  0.3500000000014564 1 0  0.3000000000012483 1 0  0.2500000000010403 1 0  0.2000000000008322 1 0  0.1500000000006241 1 0  0.100000000000416 1 0  0.05000000000020799 1 0  -0.1 1.05000000000004 0  -0.1 1.000000000000079 0  -0.1 0.9500000000001624 0  -0.1 0.9000000000003032 0  -0.1 0.850000000000444 0  -0.1 0.8000000000005848 0  -0.1 0.7500000000007256 0  -0.1 0.7000000000008665 0  -0.1 0.6500000000010508 0  -0.1 0.6000000000012352 0  -0.1 0.5500000000014196 0  -0.1 0.500000000001539 0  -0.1 0.4500000000014195 0  -0.1 0.4000000000013 0  -0.1 0.3500000000011588 0  -0.1 0.3000000000010178 0  -0.1 0.2500000000008986 0  -0.1 0.2000000000007579 0  -0.1 0.1500000000006174 0  -0.1 0.1000000000005272 0  -0.1 0.05000000000040083 0  -0.1 2.671196597248127e-13 0  -0.1 -0.0499999999998666 0  -0.0500000000000906 -0.1 0  -1.730560139634463e-13 -0.1 0  0.04999999999975802 -0.1 0  0.09999999999961506 -0.1 0  0.1499999999994613 -0.1 0  0.199999999999302 -0.1 0  0.2499999999991446 -0.1 0  0.2999999999990088 -0.1 0  0.3499999999988296 -0.1 0  0.3999999999986936 -0.1 0  0.4499999999985143 -0.1 0  0.4999999999984002 -0.1 0  0.5499999999985247 -0.1 0  0.5999999999986493 -0.1 0  0.6499999999987955 -0.1 0  0.6999999999989417 -0.1 0  0.7499999999990659 -0.1 0  0.7999999999992116 -0.1 0  0.8499999999993573 -0.1 0  0.8999999999994526 -0.1 0  0.949999999999584 -0.1 0  0.9999999999997226 -0.1 0  1.049999999999861 -0.1 0  1.1 -0.0500000000000906 0  1.1 -1.730560139634463e-13 0  1.1 0.04999999999975802 0  1.1 0.09999999999961506 0  1.1 0.1499999999994613 0  1.1 0.199999999999302 0  1.1 0.2499999999991446 0  1.1 0.2999999999990088 0  1.1 0.3499999999988296 0  1.1 0.3999999999986936 0  1.1 0.4499999999985143 0  1.1 0.4999999999984002 0  1.1 0.5499999999985247 0  1.1 0.5999999999986493 0  1.1 0.6499999999987955 0  1.1 0.6999999999989417 0  1.1 0.7499999999990659 0  1.1 0.7999999999992116 0  1.1 0.8499999999993573 0  1.1 0.8999999999994526 0  1.1 0.949999999999584 0  1.1 0.9999999999997226 0  1.1 1.049999999999861 0  1.05000000000004 1.1 0  1.000000000000079 1.1 0  0.9500000000001624 1.1 0  0.9000000000003032 1.1 0  0.850000000000444 1.1 0  0.8000000000005848 1.1 0  0.7500000000007256 1.1 0  0.7000000000008665 1.1 0  0.6500000000010508 1.1 0  0.6000000000012352 1.1 0  0.5500000000014196 1.1 0  0.500000000001539 1.1 0  0.4500000000014195 1.1 0  0.4000000000013 1.1 0  0.3500000000011588 1.1 0  0.3000000000010178 1.1 0  0.2500000000008986 1.1 0  0.2000000000007579 1.1 0  0.1500000000006174 1.1 0  0.1000000000005272 1.1 0  0.05000000000040083 1.1 0  2.671196597248127e-13 1.1 0  -0.0499999999998666 1.1 0  0.6226639587972381 0.7177769638080229 0  0.6441053826165345 0.7039926492057137 0  0.6637915156876478 0.688213256795993 0  0.681367506527133 0.6708282874673419 0  0.6969611968448517 0.6519933370899665 0  0.7106098552748352 0.6316908279896486 0  0.7222898277212139 0.6100551211684385 0  0.7319668224997666 0.5871134868728445 0  0.7393091698537048 0.5633243066920015 0  0.7442753570551912 0.5387566505040591 0  0.7467804177745057 0.5136585497087358 0  0.7468254037668819 0.4883022007095895 0  0.7444177422572505 0.4629884239411367 0  0.7395687088574753 0.4379578855032875 0  0.7322983472207901 0.4135114640122061 0  0.7226302605847829 0.3900440723936319 0  0.7105747127324253 0.3676808303340204 0  0.6963468711204427 0.3468404370887366 0  0.6799770200569506 0.3276719528086751 0  0.6618446189936742 0.3104732089018599 0  0.6425027628131288 0.2954618293546228 0  0.6218107192101688 0.2823598777821497 0  0.6000681410616895 0.2713842657147089 0  0.5774949043275082 0.2625682816003443 0  0.5540539001439138 0.2558086393670234 0  0.5298836738456144 0.2514285485803425 0  0.5051625206308223 0.2496335079646379 0  0.4799658627373229 0.2504637429676466 0  0.4548849519908496 0.253872277184698 0  0.4301216911349052 0.2599210226006137 0  0.4060146535147685 0.2684001578065714 0  0.3828437734091892 0.2794071153885996 0  0.3608799471002132 0.2926077731949868 0  0.3403612663177091 0.3078820586745262 0  0.3215182448221738 0.3250440168775566 0  0.3045324215293357 0.3438577320199134 0  0.2894880755403627 0.3640971888167609 0  0.2769940715158707 0.3853256571942442 0  0.266834559857006 0.4075057156061638 0  0.2591419933156524 0.4301672580207213 0  0.2538952498280865 0.4530010298307262 0  0.2508614811562607 0.4754700843543723 0  0.2496711983456829 0.4964997329755779 0  0.2501529046330641 0.5160747306681844 0  0.2522138732674449 0.5359514976516192 0  0.2561971804593793 0.5580365376952621 0  0.2622071462609373 0.5806502384946199 0  0.2705932774554857 0.6031121641590003 0  0.2816897511851451 0.6251444136178165 0  0.2953501995267846 0.6461343356816125 0  0.3116695937772928 0.6659129270407169 0  0.3301514151871486 0.684067886415163 0  0.3505438005357512 0.7004019611487043 0  0.3725688777829442 0.7146458630197278 0  0.3960301530958945 0.7265903971851591 0  0.4205904642823663 0.73604841558483 0  0.4460025055205697 0.7430892337618371 0  0.471891996022759 0.7475691857745651 0  0.4981476897912538 0.7493290070811748 0  0.5243601169048652 0.7483564937232298 0  0.5501691245759065 0.7446375736966534 0  0.5753990377149598 0.7382581978299139 0  0.2954248821875822 0.5964084079958769 0  0.2908936327451164 0.4076826350377328 0  0.6887120320306107 0.6330325047733537 0  0.7194873995209569 0.5489271269431706 0  0.60486860406536 0.7024396017453576 0  0.3288648265711954 0.3516842878995423 0  0.3844892153866531 0.3076134947202258 0  0.4498295121112141 0.2799656801583671 0  0.5411268915136765 0.2743848156505843 0  0.6527269612873815 0.3307703678121859 0  0.3372917871639914 0.6592991696624817 0  0.3935074701474511 0.697252817593546 0  0.7239165020870432 0.4785551684016082 0  0.7080944546172638 0.4093355306657051 0  0.2704045677885174 0.4708976069209335 0  0.5362569451728035 0.7228619541441325 0  0.4629406947860349 0.7217709167690841 0  0.5994864963619179 0.2946947872277251 0  0.2721588994345358 0.5409097863525197 0  0.6847435421190006 0.3703429211591275 0  0.4952084473435459 0.270686181941635 0  0.6442826368902409 0.6798247028325778 0  0.7091835629630417 0.5924419570234138 0  0.2654608029998036 0.5078314348411764 0  0.4057798185040259 0.2954262133186272 0  0.4061315250940141 0.3228455633368344 0  0.3869299024705868 0.3356706037779393 0  0.4089055309599458 0.3507520401107985 0  0.3886779790122953 0.3648238013784577 0  0.409004170599046 0.3781097212779644 0  0.4350827966603854 0.3680266571246367 0  0.39103831955149 0.3959905225208719 0  0.4220191911047563 0.4147147510889491 0  0.3916874928655706 0.435850688975769 0  0.4596087276080635 0.4086229403255676 0  0.4758582892443689 0.3614131246336376 0  0.5016623888908586 0.4082792915834271 0  0.5217978116617135 0.3661046703469968 0  0.544899416293362 0.4095741604576936 0  0.5635738984231778 0.369502454743563 0  0.587217903362411 0.4107441276716626 0  0.3685854196190072 0.4123571391068703 0  0.3623078555831506 0.4484798468647541 0  0.3917372862395131 0.4784142933446731 0  0.3629991993384863 0.4947333113981922 0  0.3891317976347537 0.5208988325235203 0  0.359538193971854 0.5364297862484706 0  0.3835031200253797 0.5623233624388084 0  0.3358666607098675 0.5108883225328429 0  0.355688543099193 0.576850713202454 0  0.3751351447927425 0.5991314231421282 0  0.4042102923811919 0.5919809622751989 0  0.6021627317325471 0.3758395118889591 0  0.6271811561600283 0.4052490989594595 0  0.6092952855529605 0.4408579914230448 0  0.6454770972645179 0.4349788116952947 0  0.6346368706020417 0.4715985561749417 0  0.5424301450370772 0.343817586872789 0  0.4034023962068341 0.623239058776915 0  0.4294763969554852 0.6178921424291923 0  0.588458364018421 0.4793382789560032 0  0.6129574019528411 0.5102544412862577 0  0.6487890417254323 0.5011357600373754 0  0.6436671174852454 0.5405250227406008 0  0.5957174669276857 0.550105164442968 0  0.6233125048895002 0.5835740316060426 0  0.5800635456783199 0.5913473302391199 0  0.6070223065264365 0.6258571985565936 0  0.5657823439751454 0.6379027250584483 0  0.54077296264
[...]
<PointData  Scalars="v"> 
<DataArray  type="Float64"  Name="v"  format="ascii">0.0000000000000000e+00  0.0000000000000000e+00  0.0000000000000000e+00  0.0000000000000000e+00  0.0000000000000000e+00  0.0000000000000000e+00  0.0000000000000000e+00  0.0000000000000000e+00  4.0209191051377227e-05  3.7659143537173480e-05  0.0000000000000000e+00  0.0000000000000000e+00  0.0000000000000000e+00  0.0000000000000000e+00  0.0000000000000000e+00  0.0000000000000000e+00  0.0000000000000000e+00  0.0000000000000000e+00  0.0000000000000000e+00  0.0000000000000000e+00  0.0000000000000000e+00  0.0000000000000000e+00  0.0000000000000000e+00  0.0000000000000000e+00  0.0000000000000000e+00  0.0000000000000000e+00  0.0000000000000000e+00  0.0000000000000000e+00  0.0000000000000000e+00  0.0000000000000000e+00  0.0000000000000000e+00  0.0000000000000000e+00  0.0000000000000000e+00  0.0000000000000000e+00  0.0000000000000000e+00  0.0000000000000000e+00  0.0000000000000000e+00  0.0000000000000000e+00  0.0000000000000000e+00  0.0000000000000000e+00  0.0000000000000000e+00  0.0000000000000000e+00  0.0000000000000000e+00  0.0000000000000000e+00  0.0000000000000000e+00  0.0000000000000000e+00  0.0000000000000000e+00  0.0000000000000000e+00  0.0000000000000000e+00  0.0000000000000000e+00  0.0000000000000000e+00  0.0000000000000000e+00  0.0000000000000000e+00  0.0000000000000000e+00  0.0000000000000000e+00  0.0000000000000000e+00  0.0000000000000000e+00  0.0000000000000000e+00  0.0000000000000000e+00  0.0000000000000000e+00  0.0000000000000000e+00  0.0000000000000000e+00  0.0000000000000000e+00  0.0000000000000000e+00  0.0000000000000000e+00  0.0000000000000000e+00  0.0000000000000000e+00  0.0000000000000000e+00  0.0000000000000000e+00  0.0000000000000000e+00  0.0000000000000000e+00  0.0000000000000000e+00  0.0000000000000000e+00  0.0000000000000000e+00  0.0000000000000000e+00  0.0000000000000000e+00  0.0000000000000000e+00  0.0000000000000000e+00  0.0000000000000000e+00  0.0000000000000000e+00  0.0000000000000000e+00  0.0000000000000000e+00  0.0000000000000000e+00  0.0000000000000000e+00  0.0000000000000000e+00  0.0000000000000000e+00  0.0000000000000000e+00  0.0000000000000000e+00  0.0000000000000000e+00  0.0000000000000000e+00  0.0000000000000000e+00  0.0000000000000000e+00  0.0000000000000000e+00  0.0000000000000000e+00  0.0000000000000000e+00  0.0000000000000000e+00  0.0000000000000000e+00  0.0000000000000000e+00  0.0000000000000000e+00  0.0000000000000000e+00  0.0000000000000000e+00  0.0000000000000000e+00  0.0000000000000000e+00  0.0000000000000000e+00  0.0000000000000000e+00  0.0000000000000000e+00  0.0000000000000000e+00  0.0000000000000000e+00  0.0000000000000000e+00  0.0000000000000000e+00  0.0000000000000000e+00  0.0000000000000000e+00  0.0000000000000000e+00  0.0000000000000000e+00  0.0000000000000000e+00  0.0000000000000000e+00  0.0000000000000000e+00  0.0000000000000000e+00  0.0000000000000000e+00  0.0000000000000000e+00  0.0000000000000000e+00  0.0000000000000000e+00  0.0000000000000000e+00  0.0000000000000000e+00  0.0000000000000000e+00  0.0000000000000000e+00  0.0000000000000000e+00  0.0000000000000000e+00  0.0000000000000000e+00  0.0000000000000000e+00  0.0000000000000000e+00  0.0000000000000000e+00  0.0000000000000000e+00  0.0000000000000000e+00  0.0000000000000000e+00  0.0000000000000000e+00  0.0000000000000000e+00  0.0000000000000000e+00  0.0000000000000000e+00  0.0000000000000000e+00  0.0000000000000000e+00  0.0000000000000000e+00  0.0000000000000000e+00  0.0000000000000000e+00  0.0000000000000000e+00  0.0000000000000000e+00  0.0000000000000000e+00  0.0000000000000000e+00  0.0000000000000000e+00  0.0000000000000000e+00  0.0000000000000000e+00  0.0000000000000000e+00  0.0000000000000000e+00  0.0000000000000000e+00  0.0000000000000000e+00  0.0000000000000000e+00  0.0000000000000000e+00  0.0000000000000000e+00  0.0000000000000000e+00  0.0000000000000000e+00  0.0000000000000000e+00  0.0000000000000000e+00  0.0000000000000000e+00  0.0000000000000000e+00  0.0000000000000000e+00  0.0000000000000000e+00  0.0000000000000000e+00  0.0000000000000000e+00  0.0000000000000000e+00  0.0000000000000000e+00  0.0000000000000000e+00  0.0000000000000000e+00  0.0000000000000000e+00  0.0000000000000000e+00  0.0000000000000000e+00  0.0000000000000000e+00  0.0000000000000000e+00  0.0000000000000000e+00  3.7901415726493068e-05  3.8141942591959847e-05  3.8381131283648643e-05  3.8587839551333640e-05  3.8796073814728953e-05  3.8973174983708317e-05  3.9141311245062543e-05  3.9282712439566754e-05  3.9376183332011285e-05  3.9495078485246839e-05  3.9610453776496707e-05  3.9726289800912765e-05  3.9833997509345587e-05  3.9945465595247508e-05  4.0042519134266215e-05  4.0118903695944876e-05  4.0183523691695672e-05  4.0225250675281661e-05  4.0218946827577937e-05  4.0212677720833826e-05  4.0170715163295503e-05  4.0104492477579415e-05  4.0004947214831851e-05  3.9898403896632024e-05  3.9764215905036539e-05  3.9612723996340492e-05  3.9489637784348840e-05  3.9373983406974225e-05  3.9231781713343610e-05  3.9158290581862114e-05  3.9076528167691796e-05  3.8998290699475805e-05  3.8939967871296057e-05  3.8860058221768692e-05  3.8776933331742502e-05  3.8676965397035540e-05  3.8567632660654610e-05  3.8443334144522386e-05  3.8334044805555163e-05  3.8227120402715872e-05  3.8129893682516750e-05  3.8004181406379438e-05  3.7894594372468690e-05  3.7759295209107141e-05  3.7648961693316333e-05  3.7479094317715176e-05  3.7303131883167864e-05  3.7111342179439986e-05  3.6994129443509566e-05  3.6911397242354983e-05  3.6889784691549692e-05  3.6885148933182339e-05  3.6863130481957822e-05  3.6835484611447578e-05  3.6821032660988089e-05  3.6854639821066635e-05  3.6856466382719337e-05  3.6894759139146079e-05  3.7010244401921959e-05  3.7140108399607805e-05  3.7298440982616330e-05  3.7447285116547758e-05  3.8144123119020214e-05  3.9013405660236055e-05  3.9290284462667456e-05  3.9835579773778757e-05  3.8614727577169269e-05  3.9311951347080029e-05  3.9580480102000829e-05  3.9817863671649865e-05  4.0124742570334978e-05  4.0432484549692445e-05  3.7914259937422522e-05  3.7910516691301006e-05  4.0126971189205874e-05  4.0346009966976764e-05  3.8647870593052318e-05  3.8220385958604977e-05  3.7975131250370179e-05  4.0343315445006213e-05  3.8306353153394171e-05  4.0444107522487490e-05  3.9958908984827769e-05  3.8886242878149999e-05  3.9591450828649173e-05  3.8415231244592049e-05  3.9653418013343010e-05  3.9785761301792853e-05  3.9700244097678481e-05  3.9870659029097254e-05  3.9773245985166569e-05  3.9911766827648476e-05  4.0057907098565233e-05  3.9810324760124534e-05  4.0043058625592719e-05  3.9811526600557779e-05  4.0296160710323767e-05  4.0292674088229483e-05  4.0488855305072050e-05  4.0498141663279947e-05  4.0616233393051622e-05  4.0580292703414642e-05  4.0645813971116212e-05  3.9635229983957289e-05  3.9555882934494814e-05  3.9710782711186640e-05  3.9387781877496403e-05  3.9441351884681045e-05  3.9071726250176417e-05  3.9078966262674577e-05  3.9034583163031895e-05  3.8736476623787695e-05  3.8685706408086499e-05  3.8947420296247165e-05  4.0611445322238803e-05  4.0607508464053393e-05  4.0609283821172074e-05  4.0536202682038612e-05  4.0469830053322796e-05  4.0455652124371530e-05  3.8634044893398653e-05  3.8880468561829975e-05  4.0526966349478686e-05  4.0368651687788569e-05  4.0322884198477915e-05  4.0123821500274031e-05  4.0120724328145208e-05  3.9810495799916612e-05  3.9764132170296938e-05  3.9396801763344572e-05  3.9193683329626724e-05  3.9577643437543674e-05  3.9062866589747450e-05  3.9557032658266622e-05  3.9290141656679915e-05  3.8769225875364691e-05  3.8613274153920761e-05  3.9800296297809745e-05  3.9365676481765827e-05  3.9384543340598236e-05  3.9852896407645463e-05  3.8364086886178361e-05  4.0526449046875731e-05  3.8421546515168322e-05  3.9448474119998530e-05  3.9586392585385889e-05  3.9038536209540949e-05  3.8444321254308135e-05  3.8451157093079080e-05  3.8208902001172285e-05  4.0075907162054241e-05  4.0190399662960875e-05  3.9813390146825972e-05  3.9615081978947942e-05  4.0451964430181613e-05  4.0416815891509316e-05  4.0341905268387527e-05  3.9203510354557698e-05  3.9343518164664394e-05  3.8268553261166671e-05  4.0305772279574926e-05  4.0271419650118550e-05  4.0127165693328270e-05  4.0130938857843977e-05  4.0520694680100694e-05  4.0406045371543883e-05  4.0542626226947338e-05  4.0577692731971058e-05  4.0475169641097584e-05  3.9256572352035888e-05  3.8965085482945596e-05  3.8788562579852111e-05  3.8770605006813219e-05  3.9077935555562218e-05  3.8578802191992204e-05  3.8569171699187111e-05  3.8762549311102131e-05  3.8872085455320957e-05  3.8952616559933042e-05  3.8952484080596289e-05  4.0186094086549049e-05  4.0462212202060936e-05  4.0307871761764121e-05  4.0516605308912480e-05  3.8807320708160356e-05  3.8380283719058781e-05  3.8177434491978025e-05  3.9633968621780452e-05  3.8817451630658067e-05  3.8740541970241789e-05  3.8473923010737092e-05  4.0354955657754937e-05  3.8083673578722246e-05  3.9488852156690954e-05  3.8308239485247998e-05  3.8210213031833190e-05  3.9213975276274323e-05  4.0010977406991583e-05  3.7914759478129085e-05  3.7887234721293602e-05  3.8098458169768638e-05  4.0017117640020331e-05  4.0206011699932656e-05  3.9112369437627687e-05  3.9228189142930659e-05  4.0283873696235274e-05  4.0017367459594768e-05  3.9932564409433656e-05  3.9986195091267231e-05  3.9838860105122792e-05  3.9388434032790323e-05  3.8270730825562818e-05  3.8540725269369193e-05  4.0404016039903727e-05  3.9873612386211188e-05  3.8114290161188691e-05  3.9934854050991238e-05  3.8454887408932553e-05  3.8473385246166405e-05  3.8364270956199149e-05  4.0532108584080113e-05  4.0467448126281014e-05  4.0529287234067624e-05  3.9745382092613252e-05  3.9694051327554731e-05  3.9335628773991961e-05  3.9773623486199112e-05  4.0045470681441773e-05  3.8135044995273803e-05  3.9081167862027779e-05  3.8773597262305012e-05  4.0200254624118293e-05  4.0284895456974787e-05  4.0326333618490635e-05  4.0607744295883626e-05  3.8528914839434521e-05  3.9458992090692855e-05  3.7949642489404580e-05  3.9036057869333732e-05  4.0374469013561072e-05  3.8174015297979955e-05  3.9488459350697872e-05  3.9969950024673008e-05  3.7935557571855814e-05  3.9147445794420967e-05  3.7936732282410827e-05  4.0132783387568968e-05  4.0358911596323556e-05  3.8745572574501351e-05  3.9820389655072356e-05  3.8762686082810077e-05  4.0443724550160943e-05  3.9125027329897055e-05  4.0319799775533707e-05  3.9368582294153453e-05  3.9484686270724693e-05  4.0067765203013794e-05  3.8326953731988193e-05  3.8432291711240640e-05  3.9497934671378778e-05  4.0209530053747856e-05  3.8714612130270025e-05  3.8527213636856197e-05  3.8103000811759315e-05  4.0367352981154785e-05  4.0562454478760177e-05  3.8253777472414642e-05  3.8883192257013051e-05  3.9630722901649672e-05  4.0380270862516487e-05  3.8558096886028428e-05  3.9969784271479969e-05  3.9977055723506965e-05  4.0194143414184637e-05  3.9932913597310403e-05  3.9209055154751260e-05  3.7925026476098962e-05  3.8775449194524330e-05  3.8593167870158456e-05  4.0219477580012079e-05  4.0496253226547363e-05  4.0219930894695532e-05  4.0425490451039597e-05  3.8252118450851130e-05  3.9775123502919857e-05  3.8992792448317885e-05  4.0057206608328068e-05  3.9150710627484113e-05  3.9307244603838318e-05  4.0214069938047471e-05  4.0472481061124151e-05  4.0472649711536905e-05  3.8149118377248403e-05  4.0240487439237154e-05  3.8951708364707996e-05  3.8496732829043419e-05  3.9261919583299660e-05  3.9710974725530891e-05  3.9499974787468249e-05  3.8317176030925228e-05  3.8716624087489593e-05  4.0376014712445944e-05  3.9704492757729556e-05  3.9472633672183889e-05  3.7697946130127859e-05  3.8081253926500042e-05  3.9914435240863489e-05  4.0353548551594303e-05  4.0393822989919789e-05  3.9382595840085635e-05  3.8812757868231286e-05  3.9480719265479094e-05  4.0269103131531557e-05  3.8443525466117671e-05  3.8576905172434611e-05  3.8910487967664931e-05  4.0199394017998844e-05  4.0419213141090640e-05  3.4995917094312255e-05  3.7599726471461069e-05  3.9409457028479767e-05  3.6796518208362687e-05  3.7572234705473771e-05  3.4571443529978036e-05  3.7697323020654924e-05  3.4614826525863238e-05  3.4833291601445014e-05  3.9288175791937011e-05  3.6312085748630893e-05  3.9370784083644180e-05  3.8333527316026619e-05  3.5270948726027568e-05  3.6871135687520098e-05  1.5017806248046254e-06  2.2435900595792677e-06  3.9085988137077699e-05  3.8007717942514220e-05  3.1432979190270511e-06  4.5279387133654181e-06  3.8441347735055127e-06  3.8654631609548882e-05  4.4248619501997854e-06  4.2911760142591236e-06  3.9009016452320238e-05  3.8412288574159195e-05  7.0008014244757420e-06  3.5236633873754015e-05  2.1300294555608533e-06  3.8366369794130237e-06  3.8279870406138838e-05  3.6329675533477570e-05  3.5586560857330096e-05  6.7372192878353344e-06  5.9947573806702815e-06  8.7684082104389771e-06  6.6649548225223961e-06  3.5084007499408414e-05  5.5022668880900362e-06  6.8861387031261566e-06  6.5740883560964127e-06  8.3057283139913670e-06  9.5648879588229953e-06  2.8402537681265143e-06  1.8390700165549171e-06  1.0106558425861623e-06  3.7112749507991590e-06  2.5128653238766501e-06  8.7557603003426389e-06  8.8705080661858529e-06  8.0615008746120108e-07  1.9023054696194373e-06  2.7784256011985513e-06  2.5214472057586007e-06  3.5018970218243198e-05  3.1510902801323745e-05  3.1092718536175668e-05  3.1445021977513479e-05  2.7005740467674253e-05  2.6120181260890263e-05  2.1702799175406224e-05  2.9838814310539458e-05  2.5272157680937390e-05  2.7833898610653115e-05  2.2212577963421961e-05  2.2691384209777786e-05  2.6072948743870142e-05  1.9751409276581014e-05  2.2181433632789825e-05  2.7388861472008942e-05  2.4757277236277416e-05  2.8858227863937758e-05  2.5006238460129969e-05  2.0408356532963053e-05  2.1141684606645818e-05  2.6465269925620302e-05  2.1999904740763764e-05  2.6476620869599607e-05  2.2283033040488270e-05  2.6949832309046088e-05  2.2070743944105501e-05  1.7956757905884098e-05  2.6623371330130702e-05  2.1291734652587560e-05  2.4836983974144007e-05  1.9731648528894400e-05  2.2946983593418688e-05  1.6433497042282499e-05  1.7339018710278049e-05  1.4643131657834225e-05  2.8039483604136416e-05  2.6802963210966359e-05  2.0777111920315698e-05  2.3959464642929145e-05  3.2089750809526615e-05  3.0481473993750664e-05  3.1444853050798998e-05  2.9831959355584800e-05  1.8069504605709423e-05  2.1249358940298917e-05  2.7184618104509974e-05  2.4500258644493199e-05  3.0234481039905374e-05  2.7942996927544607e-05  2.0739158749220972e-05  2.3968602979549268e-05  3.0706734855474032e-05  2.8146844156886599e-05  2.1037274018163851e-05  2.4235268103698863e-05  3.0122075217405178e-05  2.6582442258664353e-05  3.1423282341783986e-05  2.8777362134932273e-05  3.2996969921272049e-05  2.9088366904755486e-05  3.2740255386860546e-05  2.8861135321275673e-05  3.2484627660196525e-05  2.7725012018777642e-05  3.0700003905232705e-05  2.5857474558134536e-05  2.8471958749901233e-05  2.3333616851489222e-05  2.5552778567788201e-05  2.0570748466041841e-05  1.7976057947457117e-05  2.4320229645778364e-05  3.1055350061146445e-05  2.7192939858369309e-05  2.1923758127405566e-05  2.3330225538942427e-05  2.9982841456201163e-05  2.4582334798281698e-05  2.9965558380260573e-05  2.5011999887299807e-05  1.5226800373750689e-05  1.7540178898464949e-05  3.0112192608511716e-05  2.4956988532445960e-05  3.0798554544816234e-05  2.4791418341372811e-05  3.0718191201288641e-05  2.4466903785443727e-05  3.0200140239795737e-05  2.3734977153849209e-05  2.8514891602636897e-05  2.2664193731453848e-05  2.8151567007759425e-05  2.1680805090152859e-05  2.6603621620385712e-05  2.0004491088071345e-05  2.3745507607362584e-05  1.7757124421358107e-05  2.1001755364591850e-05  1.5335408854793657e-05  1.8027355286442107e-05  2.3483796131274738e-05  1.9966816627824748e-05  1.4963028509887612e-05  1.6272779816980310e-05  2.0905282142113608e-05  1.6705204358618139e-05  2.0963302376641066e-05  1.6363679358335032e-05  2.0184055767679935e-05  1.5383765369029176e-05  1.8707680433327669e-05  1.2385179170277008e-05  2.5032181140591286e-05  1.3953524639745755e-05  1.6760838065142290e-05  2.2024126335915817e-05  1.9403496855600862e-05  1.7518348620786313e-05  2.9305437838779865e-05  1.3983832995958848e-05  1.6662728273118376e-05  2.2152286768571848e-05  1.9004431977039564e-05  1.3498863767280034e-05  1.5680488915722793e-05  2.1468361995257044e-05  1.8035326622121327e-05  2.4536983117122545e-05  2.0550418467784175e-05  1.4852003128830363e-05  1.7971364127978032e-05  1.1994353723941740e-05  1.4206984019775869e-05  1.9604136787268796e-05  1.6178329700558840e-05  2.1442460821632422e-05  1.8085237627756404e-05  1.3130354290822528e-05  1.4644626590337661e-05  1.9476453846786817e-05  1.5633477223751199e-05  2.0321021056059458e-05  1.6228926886387410e-05  1.2056649946396979e-05  1.2310767698354683e-05  1.6380379668756380e-05  8.7945966035798145e-06  1.2242403283159045e-05  1.6123905779552238e-05  1.0356947917267995e-05  2.0758044420997730e-05  2.0118491547605719e-05  1.5567626734040295e-05  2.0276061525231053e-05  2.4482567099643860e-05  2.5108390708050298e-05  2.5180505789102305e-05  1.8996920541543141e-05  1.2752069049682248e-05  8.8598991796192710e-06  1.1779022880868373e-05  6.6957005023576279e-06  3.4311109098250559e-05  2.3029413834835821e-05  1.4760003202924690e-05  1.8889764706921760e-05  1.1025747297866707e-05  3.3013091769608226e-05  2.5364061638307559e-05  1.9342080778605619e-05  2.4312854906299602e-05  2.2375785262844385e-05  1.2078076650902588e-05  1.0394008824753049e-05  8.0728226865096465e-06  2.6747018171490689e-05  2.9687510509282778e-05  2.8704086550771211e-05  9.3946118039971293e-06  1.6235639267365270e-05  8.4563630189034000e-06  5.6910000558267907e-06  5.9458262938846898e-06  1.6373633183295435e-05  3.6466772256043902e-06  1.0232381263183416e-05  7.3002122399987849e-06  1.7063490610776481e-05  1.5226655049127453e-05  3.7009241690466176e-06  5.7425924945936015e-06  1.1868195500178160e-05  1.3065447231219021e-05  9.1213315703994880e-06  9.8100927362646201e-06  5.3211643779516464e-06  3.4853040903201114e-05  3.4314867446631605e-05  3.3552372040919651e-05  3.6038231529811737e-05  3.5702012074712329e-05  2.7336865642600495e-05  2.9366683434143015e-05  1.6949635600190464e-05  1.5820086929328337e-05  2.8921370337739445e-05  1.0029346523018162e-05  2.0467422178485062e-05  3.4700706044389671e-05  3.5562302349805948e-05  9.1387998615930847e-06  3.3734722780175649e-06  3.2963339561243404e-05  3.5015043608642179e-05  3.4334001073225635e-05  3.2721785531397640e-05  2.8559881871136631e-05  3.2276677949273482e-05  5.3003660982123551e-06  3.9518188991966938e-06  2.9261354361376719e-05  1.5878456943303277e-05  1.5782059997898145e-05  3.0670574532303693e-05  1.6003090775980041e-05  1.2206044857003626e-05  1.2435841042086969e-05  1.1288330781463240e-05  3.7022042958987894e-05  3.4544696403918527e-05  3.5030374296845053e-05  3.3818467226609690e-05  3.0940414868730121e-05  3.5382580964314214e-05  3.1813795929080960e-05  3.1978553828474825e-05  3.2469822549944183e-05  3.2121851594751320e-05  3.4743000513047615e-05  3.3498934050495861e-05  2.8507873023966233e-05  2.9458495832416244e-05  2.5834412850503144e-05  3.5347718135947422e-05  3.9091457959944952e-05  3.5754292280957653e-05  3.2258142206429712e-05  3.4506038754441962e-05  3.7451097679709615e-05  3.6839676001722669e-05  3.8837873850468814e-05  2.2615436374483520e-06  3.5173003163372284e-05  3.9236986955302364e-05  7.9204219071087628e-06  3.0817374547900344e-05  2.5129752995389413e-05  2.9286174165354306e-05  6.3946113130869289e-06  2.5608036075800299e-05  5.8600875426900785e-06  6.6585404777174691e-06  9.9415935604386624e-06  5.9233236643621125e-06  9.5924040400124718e-06  3.5943705793666036e-05  3.3477851142133226e-05  3.2998873646491452e-05  3.2086864713685337e-05  2.9631660619987131e-05  3.0367745563103038e-05  3.3979648312982212e-05  3.0363210757301463e-05  2.8910765671491002e-05  5.7158338713881005e-06  2.1353768506715741e-05  3