<?xml version="1.0"?>
<VTKFile type="UnstructuredGrid"  version="0.1"  >
<UnstructuredGrid>
<Piece  NumberOfPoints="1256" NumberOfCells="2414">
<Points>
<DataArray  type="Float64"  NumberOfComponents="3"  format="ascii">0 0 0  0 1 0  1 1 0  1 0 0  1.1 -0.1 0  -0.1 -0.1 0  1.1 1.1 0  -0.1 1.1 0  0.5101032892881819 0.513753005291038 0  0.605511503748735 0.7235093599794611 0  0 0.9499999999997918 0  0 0.8999999999995836 0  0 0.8499999999996529 0  0 0.7999999999999998 0  0 0.7500000000003466 0  0 0.7000000000006934 0  0 0.6500000000010401 0  0 0.6000000000013869 0  0 0.5500000000017335 0  0 0.5000000000020587 0  0 0.4500000000018723 0  0 0.4000000000016644 0  0 0.3500000000014564 0  0 0.3000000000012483 0  0 0.2500000000010403 0  0 0.2000000000008322 0  0 0.1500000000006241 0  0 0.100000000000416 0  0 0.05000000000020799 0  0.04999999999989965 0 0  0.09999999999981467 0 0  0.1499999999997036 0 0  0.1999999999995579 0 0  0.2499999999994121 0 0  0.2999999999992664 0 0  0.3499999999991206 0 0  0.3999999999989749 0 0  0.4499999999988292 0 0  0.4999999999986943 0 0  0.5499999999988151 0 0  0.5999999999989468 0 0  0.6499999999990784 0 0  0.69999999999921 0 0  0.7499999999993417 0 0  0.7999999999994734 0 0  0.8499999999996051 0 0  0.8999999999997368 0 0  0.9499999999998684 0 0  1 0.04999999999989965 0  1 0.09999999999981467 0  1 0.1499999999997036 0  1 0.1999999999995579 0  1 0.2499999999994121 0  1 0.2999999999992664 0  1 0.3499999999991206 0  1 0.3999999999989749 0  1 0.4499999999988292 0  1 0.4999999999986943 0  1 0.5499999999988151 0  1 0.5999999999989468 0  1 0.6499999999990784 0  1 0.69999999999921 0  1 0.7499999999993417 0  1 0.7999999999994734 0  1 0.8499999999996051 0  1 0.8999999999997368 0  1 0.9499999999998684 0  0.9499999999997918 1 0  0.8999999999995836 1 0  0.8499999999996529 1 0  0.7999999999999998 1 0  0.7500000000003466 1 0  0.7000000000006934 1 0  0.6500000000010401 1 0  0.6000000000013869 1 0  0.5500000000017335 1 0  0.5000000000020587 1 0  0.4500000000018723 1 0  0.4000000000016644 1 0  0.3500000000014564 1 0  0.3000000000012483 1 0  0.2500000000010403 1 0  0.2000000000008322 1 0  0.1500000000006241 1 0  0.100000000000416 1 0  0.05000000000020799 1 0  -0.1 1.05000000000004 0  -0.1 1.000000000000079 0  -0.1 0.9500000000001624 0  -0.1 0.9000000000003032 0  -0.1 0.850000000000444 0  -0.1 0.8000000000005848 0  -0.1 0.7500000000007256 0  -0.1 0.7000000000008665 0  -0.1 0.6500000000010508 0  -0.1 0.6000000000012352 0  -0.1 0.5500000000014196 0  -0.1 0.500000000001539 0  -0.1 0.4500000000014195 0  -0.1 0.4000000000013 0  -0.1 0.3500000000011588 0  -0.1 0.3000000000010178 0  -0.1 0.2500000000008986 0  -0.1 0.2000000000007579 0  -0.1 0.1500000000006174 0  -0.1 0.1000000000005272 0  -0.1 0.05000000000040083 0  -0.1 2.671196597248127e-13 0  -0.1 -0.0499999999998666 0  -0.0500000000000906 -0.1 0  -1.730560139634463e-13 -0.1 0  0.04999999999975802 -0.1 0  0.09999999999961506 -0.1 0  0.1499999999994613 -0.1 0  0.199999999999302 -0.1 0  0.2499999999991446 -0.1 0  0.2999999999990088 -0.1 0  0.3499999999988296 -0.1 0  0.3999999999986936 -0.1 0  0.4499999999985143 -0.1 0  0.4999999999984002 -0.1 0  0.5499999999985247 -0.1 0  0.5999999999986493 -0.1 0  0.6499999999987955 -0.1 0  0.6999999999989417 -0.1 0  0.7499999999990659 -0.1 0  0.7999999999992116 -0.1 0  0.8499999999993573 -0.1 0  0.8999999999994526 -0.1 0  0.949999999999584 -0.1 0  0.9999999999997226 -0.1 0  1.049999999999861 -0.1 0  1.1 -0.0500000000000906 0  1.1 -1.730560139634463e-13 0  1.1 0.04999999999975802 0  1.1 0.09999999999961506 0  1.1 0.1499999999994613 0  1.1 0.199999999999302 0  1.1 0.2499999999991446 0  1.1 0.2999999999990088 0  1.1 0.3499999999988296 0  1.1 0.3999999999986936 0  1.1 0.4499999999985143 0  1.1 0.4999999999984002 0  1.1 0.5499999999985247 0  1.1 0.5999999999986493 0  1.1 0.6499999999987955 0  1.1 0.6999999999989417 0  1.1 0.7499999999990659 0  1.1 0.7999999999992116 0  1.1 0.8499999999993573 0  1.1 0.8999999999994526 0  1.1 0.949999999999584 0  1.1 0.9999999999997226 0  1.1 1.049999999999861 0  1.05000000000004 1.1 0  1.000000000000079 1.1 0  0.9500000000001624 1.1 0  0.9000000000003032 1.1 0  0.850000000000444 1.1 0  0.8000000000005848 1.1 0  0.7500000000007256 1.1 0  0.7000000000008665 1.1 0  0.6500000000010508 1.1 0  0.6000000000012352 1.1 0  0.5500000000014196 1.1 0  0.500000000001539 1.1 0  0.4500000000014195 1.1 0  0.4000000000013 1.1 0  0.3500000000011588 1.1 0  0.3000000000010178 1.1 0  0.2500000000008986 1.1 0  0.2000000000007579 1.1 0  0.1500000000006174 1.1 0  0.1000000000005272 1.1 0  0.05000000000040083 1.1 0  2.671196597248127e-13 1.1 0  -0.0499999999998666 1.1 0  0.6304627768430204 0.7166037589241343 0  0.6543663072593474 0.7067403112344469 0  0.6767110491154247 0.693764499549099 0  0.6967707026747689 0.6776270538949437 0  0.7138978296675631 0.6584673355474627 0  0.7274533180680649 0.6366746945198916 0  0.7374606212706208 0.6130159170043978 0  0.7445488486469638 0.5882892138173134 0  0.7490402300851101 0.5629811410307225 0  0.7512330270031679 0.5373511658997344 0  0.7513901068965964 0.5116161442674161 0  0.7496692402324708 0.4859367237050995 0  0.7461010998418596 0.4604579806780991 0  0.7407069529027657 0.4353198286495543 0  0.7335173208514573 0.410659365927006 0  0.724520962628076 0.3866616644708734 0  0.7137040863490212 0.3634600842983278 0  0.7010250940441128 0.3413133381624196 0  0.6862687482886292 0.3205505110215688 0  0.6694323353888313 0.3015534698731883 0  0.6506227474818759 0.2847500196214816 0  0.6297478281374236 0.2706279787112721 0  0.6070992941577419 0.2597620038540376 0  0.583148929831411 0.2524845780382654 0  0.5584177210842264 0.2486088968608663 0  0.5333884539514071 0.2479924177689787 0  0.508422549831286 0.2502465657431416 0  0.4836945349233267 0.2549267251079589 0  0.4594618804025439 0.2616922450367091 0  0.4358037305498973 0.2703765468805357 0  0.4127640099646465 0.2806303826820551 0  0.3904095926786419 0.292293174791971 0  0.368716501911303 0.3051311859953509 0  0.3478040534093421 0.3191535105144666 0  0.3277393762565198 0.3343098091413896 0  0.3085713282338459 0.3505166404259516 0  0.2903775275187768 0.3677236985208482 0  0.2736623963635342 0.3861546676901003 0  0.2583152959910964 0.4056688007419192 0  0.2444842774809303 0.4261274682320598 0  0.2323966915887901 0.4474945087661116 0  0.2225921860630599 0.4697314465897319 0  0.2163377267455701 0.4928112281439956 0  0.2153504991074668 0.5163918751935849 0  0.2197188273393913 0.5397135767627703 0  0.2290171880010235 0.5622196613472125 0  0.241630644762389 0.5833515279405822 0  0.2566232411815303 0.6031308485590273 0  0.2736610355767046 0.6215422012514393 0  0.2922766500550238 0.6385854781786012 0  0.3123128261852144 0.654242337790008 0  0.3334496945834674 0.6685671315642622 0  0.3555701954374643 0.6815071315629688 0  0.3785491542528398 0.6929918203267951 0  0.4022527669683774 0.7030755152298735 0  0.4265300245292067 0.7117992041280302 0  0.4513818099355785 0.7188979258557922 0  0.4766875757042845 0.7242869848436057 0  0.50233540814664 0.7280338429450893 0  0.5281975310851732 0.7299487406368497 0  0.5541230982565751 0.7299770493866963 0  0.5799481999709571 0.7278910888314816 0  0.281544583451197 0.5922347042903688 0  0.2831222793142134 0.4089480446381222 0  0.7041116324885768 0.6375683402469482 0  0.727902709599568 0.5488303850783358 0  0.6136281238537165 0.698381156207895 0  0.3315578181401103 0.3591745812062386 0  0.3909646233658508 0.3182639351834904 0  0.4556956234419606 0.2871091837450797 0  0.5465385556708821 0.269561237753763 0  0.6591017151918797 0.3226124856700256 0  0.3369153417839597 0.6453326561490951 0  0.397877417908692 0.6766313023438549 0  0.727077801469511 0.4764253272806986 0  0.710330695871233 0.4058129301553252 0  0.2466288978257945 0.4683432402428382 0  0.541896072746736 0.7077877151853612 0  0.4682154503725035 0.7002343426607782 0  0.6065989917099026 0.2848518463792255 0  0.2448043364723356 0.5415121198767483 0  0.6886452884700222 0.3650186139729405 0  0.5001867973675831 0.2723767010047567 0  0.656557472149411 0.6820584088450474 0  0.7219886922434923 0.5946337620975179 0  0.2351141407573466 0.506816245288971 0  0.4123752379362387 0.3057555027383032 0  0.4117530353917701 0.3313425703982003 0  0.3916818995453796 0.3442273177527761 0  0.4130075457325844 0.3573474397057952 0  0.3912015556647335 0.3713415448398123 0  0.4112511655365439 0.3830054334413249 0  0.4389561648257104 0.3721971309030218 0  0.3910359197248132 0.4003548113338894 0  0.4226112766784745 0.4168435975655748 0  0.3885710751808477 0.4374750669466683 0  0.4625410826231267 0.4094283427676576 0  0.4810849653220078 0.3630705363887875 0  0.5061111838432802 0.407044343434087 0  0.5276380707143117 0.3642848683716803 0  0.5501384491904181 0.4064754023101975 0  0.569574225655656 0.3651462561007607 0  0.592509947116321 0.4064423690737698 0  0.3655688430710063 0.4160408255406122 0  0.3551795000695558 0.4497341377585785 0  0.3861471902252858 0.4769250796737774 0  0.3529958665077859 0.4926463312951566 0  0.3823060844184805 0.5161146929807502 0  0.3486659967456991 0.5312552765670919 0  0.376920213531164 0.5541933710172537 0  0.3210062068065775 0.5083563274744032 0  0.3464719384118988 0.5685820445535947 0  0.3699578670932672 0.5880711438575282 0  0.4014136656180853 0.5807793841275217 0  0.6077976594119102 0.3702017640216337 0  0.6319631435608525 0.40035780739567 0  0.6143366473527863 0.4369632682279416 0  0.6498266812924247 0.4311225164103892 0  0.6398393809590629 0.4685675958211896 0  0.548764013261994 0.3403827367297991 0  0.4025498363946791 0.6093078878862613 0  0.4302040104451508 0.60431208029935 0  0.5940280083293633 0.4757779148937475 0  0.6194702061385997 0.5073911983636225 0  0.6548205490321365 0.499037068807521 0  0.6517331402562461 0.5392011202708726 0  0.6034898683569545 0.5467155571139539 0  0.6332974301979044 0.5819315640570361 0  0.5887631297742451 0.5865331715117597 0  0.6178279349244932 0.6229893063068486 0  0.5747547772167467 0.63061543968258 0  0.5479260077190448 0.5
[...]
<PointData  Scalars="v"> 
<DataArray  type="Float64"  Name="v"  format="ascii">0.0000000000000000e+00  0.0000000000000000e+00  0.0000000000000000e+00  0.0000000000000000e+00  0.0000000000000000e+00  0.0000000000000000e+00  0.0000000000000000e+00  0.0000000000000000e+00  2.2643008747143946e-05  2.3920466252411691e-05  0.0000000000000000e+00  0.0000000000000000e+00  0.0000000000000000e+00  0.0000000000000000e+00  0.0000000000000000e+00  0.0000000000000000e+00  0.0000000000000000e+00  0.0000000000000000e+00  0.0000000000000000e+00  0.0000000000000000e+00  0.0000000000000000e+00  0.0000000000000000e+00  0.0000000000000000e+00  0.0000000000000000e+00  0.0000000000000000e+00  0.0000000000000000e+00  0.0000000000000000e+00  0.0000000000000000e+00  0.0000000000000000e+00  0.0000000000000000e+00  0.0000000000000000e+00  0.0000000000000000e+00  0.0000000000000000e+00  0.0000000000000000e+00  0.0000000000000000e+00  0.0000000000000000e+00  0.0000000000000000e+00  0.0000000000000000e+00  0.0000000000000000e+00  0.0000000000000000e+00  0.0000000000000000e+00  0.0000000000000000e+00  0.0000000000000000e+00  0.0000000000000000e+00  0.0000000000000000e+00  0.0000000000000000e+00  0.0000000000000000e+00  0.0000000000000000e+00  0.0000000000000000e+00  0.0000000000000000e+00  0.0000000000000000e+00  0.0000000000000000e+00  0.0000000000000000e+00  0.0000000000000000e+00  0.0000000000000000e+00  0.0000000000000000e+00  0.0000000000000000e+00  0.0000000000000000e+00  0.0000000000000000e+00  0.0000000000000000e+00  0.0000000000000000e+00  0.0000000000000000e+00  0.0000000000000000e+00  0.0000000000000000e+00  0.0000000000000000e+00  0.0000000000000000e+00  0.0000000000000000e+00  0.0000000000000000e+00  0.0000000000000000e+00  0.0000000000000000e+00  0.0000000000000000e+00  0.0000000000000000e+00  0.0000000000000000e+00  0.0000000000000000e+00  0.0000000000000000e+00  0.0000000000000000e+00  0.0000000000000000e+00  0.0000000000000000e+00  0.0000000000000000e+00  0.0000000000000000e+00  0.0000000000000000e+00  0.0000000000000000e+00  0.0000000000000000e+00  0.0000000000000000e+00  0.0000000000000000e+00  0.0000000000000000e+00  0.0000000000000000e+00  0.0000000000000000e+00  0.0000000000000000e+00  0.0000000000000000e+00  0.0000000000000000e+00  0.0000000000000000e+00  0.0000000000000000e+00  0.0000000000000000e+00  0.0000000000000000e+00  0.0000000000000000e+00  0.0000000000000000e+00  0.0000000000000000e+00  0.0000000000000000e+00  0.0000000000000000e+00  0.0000000000000000e+00  0.0000000000000000e+00  0.0000000000000000e+00  0.0000000000000000e+00  0.0000000000000000e+00  0.0000000000000000e+00  0.0000000000000000e+00  0.0000000000000000e+00  0.0000000000000000e+00  0.0000000000000000e+00  0.0000000000000000e+00  0.0000000000000000e+00  0.0000000000000000e+00  0.0000000000000000e+00  0.0000000000000000e+00  0.0000000000000000e+00  0.0000000000000000e+00  0.0000000000000000e+00  0.0000000000000000e+00  0.0000000000000000e+00  0.0000000000000000e+00  0.0000000000000000e+00  0.0000000000000000e+00  0.0000000000000000e+00  0.0000000000000000e+00  0.0000000000000000e+00  0.0000000000000000e+00  0.0000000000000000e+00  0.0000000000000000e+00  0.0000000000000000e+00  0.0000000000000000e+00  0.0000000000000000e+00  0.0000000000000000e+00  0.0000000000000000e+00  0.0000000000000000e+00  0.0000000000000000e+00  0.0000000000000000e+00  0.0000000000000000e+00  0.0000000000000000e+00  0.0000000000000000e+00  0.0000000000000000e+00  0.0000000000000000e+00  0.0000000000000000e+00  0.0000000000000000e+00  0.0000000000000000e+00  0.0000000000000000e+00  0.0000000000000000e+00  0.0000000000000000e+00  0.0000000000000000e+00  0.0000000000000000e+00  0.0000000000000000e+00  0.0000000000000000e+00  0.0000000000000000e+00  0.0000000000000000e+00  0.0000000000000000e+00  0.0000000000000000e+00  0.0000000000000000e+00  0.0000000000000000e+00  0.0000000000000000e+00  0.0000000000000000e+00  0.0000000000000000e+00  0.0000000000000000e+00  0.0000000000000000e+00  0.0000000000000000e+00  0.0000000000000000e+00  0.0000000000000000e+00  0.0000000000000000e+00  0.0000000000000000e+00  0.0000000000000000e+00  0.0000000000000000e+00  0.0000000000000000e+00  0.0000000000000000e+00  0.0000000000000000e+00  0.0000000000000000e+00  0.0000000000000000e+00  0.0000000000000000e+00  0.0000000000000000e+00  0.0000000000000000e+00  2.2444510792204697e-05  2.0960538145327802e-05  1.9562878229629936e-05  1.8486787098068585e-05  1.7781750820454615e-05  1.7430482752472279e-05  1.7446309941719749e-05  1.7630490368530895e-05  1.7847142992742854e-05  1.8160029723058018e-05  1.8455582364217893e-05  1.8682446655461865e-05  1.8813542971329483e-05  1.8853486251286994e-05  1.8795913590847829e-05  1.8634814902296417e-05  1.8408977962943524e-05  1.8123359761923783e-05  1.7883376277136932e-05  1.7755692560818114e-05  1.7779197394083454e-05  1.7979659339454367e-05  1.8417335759853809e-05  1.9070790326534393e-05  1.9864173602540433e-05  2.0732685211021330e-05  2.1611414757518529e-05  2.2368511479585092e-05  2.2977529167693270e-05  2.3388045532418426e-05  2.3691273478792970e-05  2.3665175494661922e-05  2.3437617298256073e-05  2.2957353693136466e-05  2.2184299121546627e-05  2.1208246661558638e-05  2.0042162924290635e-05  1.8655428944925905e-05  1.7128083653858494e-05  1.5577253706869129e-05  1.4078971827644664e-05  1.2700399583231995e-05  1.1469783292516853e-05  1.1458539242111873e-05  1.1989815032801291e-05  1.3524262634871555e-05  1.5138682459298740e-05  1.7012868452042890e-05  1.9122852363180655e-05  2.1140160257659059e-05  2.2994817637533526e-05  2.4653965257721378e-05  2.6088842627133990e-05  2.7244735771713516e-05  2.7998999383354150e-05  2.8427000915091114e-05  2.8645178058702939e-05  2.8578651381900058e-05  2.8172256042274196e-05  2.7479745653936066e-05  2.6463814347503439e-05  2.5281823656303715e-05  1.9393314478081253e-05  1.9086330714582550e-05  1.9794790536492388e-05  1.9544000860199486e-05  2.2977197511099730e-05  2.1202893986717531e-05  2.2366121804725922e-05  2.2272319457348561e-05  2.0821236451395497e-05  1.9381164493851642e-05  2.3041406164018080e-05  2.5156264672976574e-05  1.9659234905113440e-05  1.9592090168918666e-05  1.6640489836563777e-05  2.5096493187674780e-05  2.6032521435225240e-05  1.9857838155228466e-05  1.6616093329946678e-05  1.9524515648551644e-05  2.1694041976407040e-05  2.1403351929168097e-05  1.9500215697309189e-05  1.5878829598285206e-05  2.2486760065860108e-05  2.2261890086883646e-05  2.2092879177004220e-05  2.2046000522713544e-05  2.1805781528692536e-05  2.1857414013228923e-05  2.2038303254554184e-05  2.1562359195105501e-05  2.1786477610289809e-05  2.1369312819180730e-05  2.1982807528618004e-05  2.1953572672038305e-05  2.1878529920553191e-05  2.1509100630955842e-05  2.1507517241283573e-05  2.1003435399331361e-05  2.0990760853956716e-05  2.1042960509590853e-05  2.0672211718962459e-05  2.1381950223239067e-05  2.0657053876994367e-05  2.1529413515855238e-05  2.0740338688159059e-05  2.1891575121992477e-05  1.9679224367967367e-05  2.1293332778175002e-05  2.2438325343853936e-05  2.2921200076915782e-05  2.0506352097398654e-05  2.0393844278905044e-05  2.0903275247425827e-05  2.0390637952202112e-05  2.0690932180370018e-05  2.1131363573984048e-05  2.3529816772592826e-05  2.3758197760701592e-05  2.1452933492317066e-05  2.1261582622953831e-05  2.0598165786604448e-05  2.0793441647181648e-05  2.1858004489994680e-05  2.1374623177769112e-05  2.2471159856221426e-05  2.2063956048342956e-05  2.3344823464755171e-05  2.3258919379458316e-05  2.4019800832568664e-05  2.1148962721612758e-05  2.3913378770053245e-05  2.4667737669057131e-05  2.4813167553390061e-05  2.1979292059006009e-05  2.0098381559533460e-05  2.0460835216597402e-05  2.2301322465573607e-05  2.3052197514374826e-05  2.0032729951259069e-05  2.4606486150675019e-05  2.3151999041757808e-05  2.1771743160061517e-05  2.2993275024905764e-05  2.1919675342095609e-05  2.0703467580168470e-05  2.1330330601936012e-05  2.0299690700354075e-05  2.0129302336023567e-05  2.0689631859347655e-05  2.0492670803946542e-05  2.0029840771876031e-05  2.0261439556650374e-05  1.9909274164155288e-05  2.1773034287387003e-05  2.0925275119580546e-05  2.4304149644056020e-05  2.1632914298203532e-05  2.1335990141751489e-05  2.2009727355429676e-05  2.1862537313018275e-05  2.0560225539352195e-05  2.0717447551846439e-05  2.0069752849466833e-05  2.0126303207566602e-05  2.0105075792990497e-05  1.9671739609222389e-05  1.8644591883154653e-05  1.8680146063223010e-05  1.7806335655180962e-05  1.8870327789923508e-05  1.7659686489257833e-05  1.8624843497537899e-05  2.0275132444966200e-05  1.7900667691643709e-05  1.8314526979977797e-05  2.2461511596820233e-05  2.2042488222413710e-05  1.9692528348026073e-05  2.0104851659152143e-05  2.1973686478579813e-05  2.4480116921534804e-05  2.5128435127489301e-05  2.5253223946782695e-05  2.1393357121784781e-05  2.4014469620042050e-05  2.3597433446097538e-05  1.9597687278192703e-05  2.2013012091104059e-05  2.5708314231399271e-05  2.2115255445979471e-05  2.5412714683575453e-05  2.5628199920928478e-05  2.0568117873054152e-05  2.2606528212661948e-05  2.4500049614205806e-05  2.3826973383347234e-05  2.5603461626031033e-05  1.9576570596189909e-05  1.9659590319006784e-05  1.9869908750139584e-05  1.9795812987775627e-05  1.9632112647935889e-05  2.2133840231010080e-05  1.9528824936406660e-05  1.9916461069390153e-05  1.9902143711570083e-05  2.1709003537368239e-05  2.4595638040450763e-05  2.4487268313011974e-05  1.9551582341553912e-05  2.2046965577906123e-05  1.8106262026301155e-05  2.0334602786307003e-05  2.4927801612085684e-05  2.3651896721997097e-05  1.7725417826103215e-05  1.9823458332410629e-05  1.9461282907823652e-05  1.9853075039255010e-05  2.2434901969356130e-05  1.9485407818795627e-05  2.3620940633179248e-05  2.0186495014283632e-05  2.1273534634193685e-05  2.3875095492891610e-05  1.8997364997331368e-05  2.2119835043900617e-05  2.0325742016995244e-05  2.0717454967277362e-05  2.0326287583122858e-05  2.1541083470153752e-05  2.5037521765323785e-05  1.9601339094619094e-05  2.0576565976333943e-05  2.0632750179477398e-05  1.9445701879399186e-05  2.2591479715337167e-05  2.2384731438206367e-05  2.2577749392401538e-05  2.1909092765681184e-05  2.1173549584940859e-05  2.5631496515999799e-05  2.1485193460661650e-05  2.0369848619329177e-05  1.7298512271972247e-05  2.3099750437989721e-05  1.9410931591750372e-05  1.9787330423047463e-05  1.9930485519266891e-05  2.2314309960822095e-05  2.0826284818204845e-05  2.1366941872914662e-05  1.9828012349662553e-05  1.8607399899599434e-05  1.6350814314889114e-05  2.0125185370943223e-05  2.1125694832771328e-05  1.7187370271387105e-05  1.6052429280722275e-05  1.6996684385115468e-05  2.1053261811564544e-05  2.0108390467318219e-05  2.0376215727182740e-05  1.8243624102735581e-05  1.9979650211300596e-05  1.9220324330589501e-05  2.4956743754926810e-05  2.2071159438725476e-05  2.2190641608825245e-05  1.9936911539461785e-05  2.1713962023852531e-05  1.9461503197682370e-05  2.6092014721781438e-05  2.3081367187312444e-05  1.6785600025906012e-05  1.9869275763310806e-05  2.2058354496670955e-05  2.1577231349050384e-05  2.0298965396307699e-05  1.5381088381315952e-05  2.3133865344088439e-05  2.1771494456134601e-05  2.1811033407300023e-05  2.2326676240003474e-05  2.0420203601034332e-05  2.1873310239555737e-05  2.0841831635390062e-05  1.9730772598989006e-05  2.4954968696032821e-05  1.9846932151318728e-05  2.3488348095869752e-05  2.4010625277272331e-05  2.0322263896914730e-05  1.9801566924945627e-05  2.0916661649429067e-05  2.5328781986942104e-05  2.4506719526412636e-05  1.9794011038713215e-05  2.0939482546924616e-05  2.0581895197193973e-05  2.6453061919143372e-05  2.3300716151977534e-05  2.2148765799224549e-05  2.1374192300382214e-05  2.2074808290815823e-05  2.1485427661068205e-05  2.4558450994212083e-05  2.0583549317084359e-05  2.0249287419521101e-05  2.3638419074677388e-05  2.3113184521003278e-05  2.0044100105753663e-05  2.0350110262929677e-05  1.9849683573629175e-05  2.5801818530180016e-05  2.2739779215750741e-05  1.4867216512655489e-05  1.5486119131004924e-05  1.3450469928150521e-05  3.3018929878325132e-05  2.5937374072290117e-05  1.5114143633942718e-05  3.3736323176381039e-05  1.6283249796627884e-05  2.0875479687494664e-05  1.5053104529002387e-05  1.4393414187682499e-05  3.0245847344904192e-05  1.5583495425787888e-05  4.0818746903125680e-06  9.4961933351770931e-07  1.7211046531328295e-05  2.4825643490926279e-05  8.9687343447070248e-07  4.6938526084996572e-06  -9.1178330578979745e-07  1.6059058372510588e-05  2.9516894988277790e-08  1.6961756221355744e-06  1.6529217959894843e-05  1.9237987016717820e-05  9.8849145161520527e-07  9.0770085662269002e-06  7.5279326225781384e-06  4.9107048953992413e-06  2.2524549355918882e-05  7.7598617607235578e-06  2.6038289187567909e-05  8.4450480047719789e-07  -7.8814926544274709e-07  2.2399080093585758e-06  6.6666543187999724e-06  3.4390594747164408e-06  -6.9305444798005303e-07  5.5242063692708889e-07  2.7145107681688847e-07  5.9546513827627540e-06  4.3192490467822073e-06  8.6742453950283759e-06  -1.5448730850206865e-07  1.3175288545327606e-06  1.0260360224181132e-07  1.6596906569128300e-06  -1.8801441576713113e-06  -2.6478511957682591e-06  1.7407193648021320e-06  -5.4540946488002247e-07  -1.8648416582148162e-07  2.2051132001967652e-06  2.5340206351932635e-06  -2.4227347606314101e-06  -3.1204217986535930e-06  -1.3791133103983510e-06  -5.8414486235348534e-06  -5.9434902603745035e-06  -6.4372306791289590e-06  -3.7174146586611488e-06  -5.2007045189524027e-06  -3.6271267622942129e-06  -6.4423888360055321e-06  -4.4025058016003862e-06  -2.1477619985535479e-06  -2.7412935550325620e-06  -2.5815210177025483e-07  1.2078508724788838e-06  3.4395858219888714e-06  7.3969825440191902e-06  7.6099619811887410e-06  4.8387658434459942e-06  8.3099595732049539e-06  1.2203145801030179e-05  1.2085296177520464e-05  1.6381678673440239e-05  1.5539795018154585e-05  2.0330770598405152e-05  1.8111882047618528e-05  1.3567408401061361e-05  2.3003426436771603e-05  1.9487659308863416e-05  2.3318846818257344e-05  1.9344115649774875e-05  2.2495967717051712e-05  1.5654151967209530e-05  8.7603914628266582e-06  1.4858289016875735e-05  2.6101311606248535e-05  2.5150450374820250e-05  2.0489461709724608e-05  2.2125331459961030e-05  6.1313527003318279e-06  1.6826597667149093e-05  2.7630569434336647e-05  2.3799600497429553e-05  1.7353288487066570e-05  1.8648653004224144e-05  2.2746102475971697e-05  1.9028764021200220e-05  2.2487914465350615e-05  1.8808269485610453e-05  1.4709821355470333e-05  1.4361611500690418e-05  1.7560391584979674e-05  1.3973746096674182e-05  1.0998965185494764e-05  1.0482547917917003e-05  1.2326825993130713e-05  9.5217680476633334e-06  1.1107669694834580e-05  8.6365564305226161e-06  9.4723911600204798e-06  7.2639071574583088e-06  8.1126496572139564e-06  6.0609098664511161e-06  7.1616432765724961e-06  4.9676376966927866e-06  5.9549688036320994e-06  3.9993716302758769e-06  5.0292058873550948e-06  3.1306273432772639e-06  4.1287429614499340e-06  2.4743088974073832e-06  1.6776855870749579e-06  4.5143648826816970e-06  6.7509312249348709e-06  5.3640874784296851e-06  3.1738453378565295e-06  4.2401522542130266e-06  7.5621137581188329e-06  5.3449997952377129e-06  8.3845140332829475e-06  5.9581472181332160e-06  1.2624522070772521e-06  2.2461042904537933e-06  8.8482794007792503e-06  5.9915235259997460e-06  9.2935730963573023e-06  5.5713318756008454e-06  8.7268322806335860e-06  4.6396568887971835e-06  7.3728588933338487e-06  3.2627749882514225e-06  5.0955417745416503e-06  1.7865551762291300e-06  3.6524442488587491e-06  5.4557933525059990e-07  1.9883568522179611e-06  -5.9889119796904512e-07  3.8157591585535749e-07  -1.3237854352514201e-06  -4.1728188058825139e-07  -1.5472744618970155e-06  -6.8413713337369374e-07  1.1096988513582470e-06  9.1298543239191195e-07  -6.0580735801832111e-07  8.7245634397726102e-07  3.1118653571486719e-06  2.8218889334693359e-06  5.7322701864941406e-06  5.0617600876098876e-06  8.6746637642496430e-06  7.4091144149490360e-06  1.1719166097105661e-05  8.2443903036305157e-07  9.4465498939496998e-06  9.7148683432689109e-06  1.4451978276506113e-05  1.6926757186719581e-05  1.9747406991336343e-05  9.3972903071027539e-07  3.2384606369283811e-06  1.6109169967203809e-05  2.1794614845638827e-05  2.5622997159431039e-05  2.7697311275158751e-05  2.2171860615099945e-05  2.7912713622290871e-05  3.3300597690165836e-05  3.3399493686523563e-05  3.8062350694618896e-05  3.7753731083955055e-05  3.1892469045393189e-05  3.6882261243371672e-05  2.8886081444467341e-05  3.2418079356633596e-05  3.8376970492163906e-05  3.3993557271623126e-05  3.8443380944024356e-05  3.3813513416578650e-05  2.8635172069698760e-05  2.7966705971293268e-05  3.1737572598470766e-05  2.5504499939249905e-05  2.7722366327836094e-05  2.1390684166879614e-05  1.9237476714846897e-05  1.5475699387241802e-05  1.6315687532371393e-05  1.3539635325659730e-05  1.0910595194422757e-05  1.0701785634042024e-05  2.2891141044701843e-05  1.5627228411591569e-05  9.5086029163269283e-06  5.5475092319299786e-06  4.0618169669721530e-06  3.3014629589707604e-05  4.1007099890597003e-05  2.8485885422040058e-05  3.4765805564406813e-06  6.0795884507581585e-07  2.2209389066422492e-05  4.0477689620677265e-06  1.6880514289609130e-05  1.1734099433284767e-05  5.9350513943634007e-06  1.5034538930471573e-06  -3.9892450761094223e-07  2.8338479489367356e-06  7.8337661181208246e-06  1.4145087381546071e-05  3.6339732037412239e-06  1.6108121465019870e-06  -2.4128197119005274e-06  -1.7470151618552119e-06  2.1043313172896759e-05  1.4304488626211973e-05  3.9772972408172618e-05  3.9802252894931805e-05  4.0808369696079474e-05  2.4660425466020882e-05  -2.9138032901959253e-06  1.5958985102618004e-05  1.0692105353091064e-05  8.7719710625602448e-06  1.5010916611739065e-06  6.6797049646982393e-06  4.1260115382794504e-07  2.0234979475198380e-05  2.0086108273813877e-06  1.5506757338280969e-05  5.2178122766604243e-06  6.1294051593523453e-06  1.1678956328206759e-05  1.1758567176515904e-05  8.4937177239272450e-06  8.1893244196232734e-06  1.1821387015749960e-05  8.5682162890215389e-06  1.3892737508715865e-05  1.5379616539256937e-05  1.0577805547904823e-05  9.6945158682096649e-06  3.5698691179137080e-05  3.7230688112915987e-05  -5.5209394028701311e-06  -4.9372482211464116e-06  3.1866478328284035e-05  -1.6569456467323279e-06  7.5351169434200473e-06  1.2193203962201493e-05  1.2044222334806692e-05  9.5699149002613087e-06  3.3729750332087069e-06  2.7943242731860595e-05  2.7847854424729688e-05  2.7583417132055747e-05  3.7299504438165246e-05  3.5515910076214118e-05  3.2426758213748850e-05  1.5048647123591687e-05  1.1121696173462799e-05  2.7585228363265199e-05  -8.7972796401807772e-07  1.4150595145050478e-05  8.1573314908932868e-07  -8.8634741466634656e-07  9.5980287207208604e-07  1.4424709997628464e-06  4.5546699888941409e-07  1.3725345974470125e-05  1.1602111336606824e-05  9.6861988934400902e-06  1.3010838336272908e-05  9.1034042782325584e-06  9.3309702695164179e-06  5.7382694190824450e-06  6.9626289078961803e-06  -3.8393745243987570e-07  2.5080691393991796e-05  2.4230495518772871e-05  2.2081456231451727e-05  8.5508524958629803e-07  5.3907757016401697e-06  6.1881884907534060e-06  1.8366110350738482e-05  1.5315063611854430e-05  1.6514018889993148e-05  1.4396867414079387e-05  1.2158732093049295e-05  1.4831598255307270e-05  1.3826876413020484e-05  1.7851560112042965e-05  3.8836496542273058e-06  6.5109838714529564e-06  1.4327634716260931e-05  -2.7934971000025569e-08  1.0443971296966069e-05  1.9724595706423442e-05  1.8894662217340346e-05  3.5425062033978235e-07  -3.4528003876218162e-06  5.1952161955478552e-06  5.1544400713669359e-06  7.0749359234271246e-06  3.8007294404436898e-06  5.4016856434139730e-06  2.3278885889956678e-05  2.1015308841067396e-05  2.4264444873435928e-05  2.7492473196667255e-05  2.1394460260979159e-05  1.7940934306197934e-05  2.9255940902672988e-05  3.0649925275220759e-05  2.4549430293461101e-05  1.6567342