<?xml version="1.0"?>
<VTKFile type="UnstructuredGrid"  version="0.1"  >
<UnstructuredGrid>
<Piece  NumberOfPoints="1191" NumberOfCells="2284">
<Points>
<DataArray  type="Float64"  NumberOfComponents="3"  format="ascii">0 0 0  0 1 0  1 1 0  1 0 0  1.1 -0.1 0  -0.1 -0.1 0  1.1 1.1 0  -0.1 1.1 0  0.546543769085949 0.5426953268862957 0  0.5767135119654441 0.6767867681072877 0  0 0.9499999999997918 0  0 0.8999999999995836 0  0 0.8499999999996529 0  0 0.7999999999999998 0  0 0.7500000000003466 0  0 0.7000000000006934 0  0 0.6500000000010401 0  0 0.6000000000013869 0  0 0.5500000000017335 0  0 0.5000000000020587 0  0 0.4500000000018723 0  0 0.4000000000016644 0  0 0.3500000000014564 0  0 0.3000000000012483 0  0 0.2500000000010403 0  0 0.2000000000008322 0  0 0.1500000000006241 0  0 0.100000000000416 0  0 0.05000000000020799 0  0.04999999999989965 0 0  0.09999999999981467 0 0  0.1499999999997036 0 0  0.1999999999995579 0 0  0.2499999999994121 0 0  0.2999999999992664 0 0  0.3499999999991206 0 0  0.3999999999989749 0 0  0.4499999999988292 0 0  0.4999999999986943 0 0  0.5499999999988151 0 0  0.5999999999989468 0 0  0.6499999999990784 0 0  0.69999999999921 0 0  0.7499999999993417 0 0  0.7999999999994734 0 0  0.8499999999996051 0 0  0.8999999999997368 0 0  0.9499999999998684 0 0  1 0.04999999999989965 0  1 0.09999999999981467 0  1 0.1499999999997036 0  1 0.1999999999995579 0  1 0.2499999999994121 0  1 0.2999999999992664 0  1 0.3499999999991206 0  1 0.3999999999989749 0  1 0.4499999999988292 0  1 0.4999999999986943 0  1 0.5499999999988151 0  1 0.5999999999989468 0  1 0.6499999999990784 0  1 0.69999999999921 0  1 0.7499999999993417 0  1 0.7999999999994734 0  1 0.8499999999996051 0  1 0.8999999999997368 0  1 0.9499999999998684 0  0.9499999999997918 1 0  0.8999999999995836 1 0  0.8499999999996529 1 0  0.7999999999999998 1 0  0.7500000000003466 1 0  0.7000000000006934 1 0  0.6500000000010401 1 0  0.6000000000013869 1 0  0.5500000000017335 1 0  0.5000000000020587 1 0  0.4500000000018723 1 0  0.4000000000016644 1 0  0.3500000000014564 1 0  0.3000000000012483 1 0  0.2500000000010403 1 0  0.2000000000008322 1 0  0.1500000000006241 1 0  0.100000000000416 1 0  0.05000000000020799 1 0  -0.1 1.05000000000004 0  -0.1 1.000000000000079 0  -0.1 0.9500000000001624 0  -0.1 0.9000000000003032 0  -0.1 0.850000000000444 0  -0.1 0.8000000000005848 0  -0.1 0.7500000000007256 0  -0.1 0.7000000000008665 0  -0.1 0.6500000000010508 0  -0.1 0.6000000000012352 0  -0.1 0.5500000000014196 0  -0.1 0.500000000001539 0  -0.1 0.4500000000014195 0  -0.1 0.4000000000013 0  -0.1 0.3500000000011588 0  -0.1 0.3000000000010178 0  -0.1 0.2500000000008986 0  -0.1 0.2000000000007579 0  -0.1 0.1500000000006174 0  -0.1 0.1000000000005272 0  -0.1 0.05000000000040083 0  -0.1 2.671196597248127e-13 0  -0.1 -0.0499999999998666 0  -0.0500000000000906 -0.1 0  -1.730560139634463e-13 -0.1 0  0.04999999999975802 -0.1 0  0.09999999999961506 -0.1 0  0.1499999999994613 -0.1 0  0.199999999999302 -0.1 0  0.2499999999991446 -0.1 0  0.2999999999990088 -0.1 0  0.3499999999988296 -0.1 0  0.3999999999986936 -0.1 0  0.4499999999985143 -0.1 0  0.4999999999984002 -0.1 0  0.5499999999985247 -0.1 0  0.5999999999986493 -0.1 0  0.6499999999987955 -0.1 0  0.6999999999989417 -0.1 0  0.7499999999990659 -0.1 0  0.7999999999992116 -0.1 0  0.8499999999993573 -0.1 0  0.8999999999994526 -0.1 0  0.949999999999584 -0.1 0  0.9999999999997226 -0.1 0  1.049999999999861 -0.1 0  1.1 -0.0500000000000906 0  1.1 -1.730560139634463e-13 0  1.1 0.04999999999975802 0  1.1 0.09999999999961506 0  1.1 0.1499999999994613 0  1.1 0.199999999999302 0  1.1 0.2499999999991446 0  1.1 0.2999999999990088 0  1.1 0.3499999999988296 0  1.1 0.3999999999986936 0  1.1 0.4499999999985143 0  1.1 0.4999999999984002 0  1.1 0.5499999999985247 0  1.1 0.5999999999986493 0  1.1 0.6499999999987955 0  1.1 0.6999999999989417 0  1.1 0.7499999999990659 0  1.1 0.7999999999992116 0  1.1 0.8499999999993573 0  1.1 0.8999999999994526 0  1.1 0.949999999999584 0  1.1 0.9999999999997226 0  1.1 1.049999999999861 0  1.05000000000004 1.1 0  1.000000000000079 1.1 0  0.9500000000001624 1.1 0  0.9000000000003032 1.1 0  0.850000000000444 1.1 0  0.8000000000005848 1.1 0  0.7500000000007256 1.1 0  0.7000000000008665 1.1 0  0.6500000000010508 1.1 0  0.6000000000012352 1.1 0  0.5500000000014196 1.1 0  0.500000000001539 1.1 0  0.4500000000014195 1.1 0  0.4000000000013 1.1 0  0.3500000000011588 1.1 0  0.3000000000010178 1.1 0  0.2500000000008986 1.1 0  0.2000000000007579 1.1 0  0.1500000000006174 1.1 0  0.1000000000005272 1.1 0  0.05000000000040083 1.1 0  2.671196597248127e-13 1.1 0  -0.0499999999998666 1.1 0  0.6070460186545081 0.6701759870921526 0  0.6362579952179999 0.6582011979846051 0  0.662984248560969 0.6402598660784805 0  0.6846119464595206 0.616223185504868 0  0.6979436567562313 0.587027017937532 0  0.7061824011703541 0.5565286607012088 0  0.7102111883880643 0.5256153576497884 0  0.7113262456588786 0.4947199299861743 0  0.7099737391362121 0.4639749750864172 0  0.7061362344396691 0.4335136259780357 0  0.6998174296424516 0.4035451477954246 0  0.6910750534711542 0.3742325432540752 0  0.6798128612594861 0.345809445642128 0  0.6659495986573067 0.3186618450026222 0  0.6488136062370464 0.2934703989652364 0  0.6286012335455265 0.2710699559007728 0  0.6042841635682946 0.2531511639903911 0  0.5772410754528007 0.240675193306036 0  0.5482580063628293 0.2350991251476973 0  0.5193226261980975 0.2346603263807359 0  0.4906705103161579 0.238262237951795 0  0.4626643000414727 0.2446993370614504 0  0.4353579609028471 0.2536285312241578 0  0.4089650124819552 0.2646735601554276 0  0.3835184585395152 0.2772066868455338 0  0.3586170543324085 0.2909151457798563 0  0.3345425234095116 0.3058419792373887 0  0.3113090162813457 0.3218774597602564 0  0.288930608236577 0.3389842102670675 0  0.2675910836107793 0.3571336954127209 0  0.2477650533462232 0.3768214881960013 0  0.2292079848851566 0.3975423501979984 0  0.2123485475543433 0.4195859611597572 0  0.1974049293577078 0.4425793636991373 0  0.1859284009989213 0.4670743216441224 0  0.1814619493906936 0.493077589859284 0  0.1872538315400836 0.5193267697696045 0  0.2018264594660202 0.5426913244494325 0  0.2207226502611088 0.5637262569091552 0  0.2423580935385804 0.5825888550832516 0  0.265630266091689 0.5996514619420985 0  0.2903168650486215 0.6149911873593551 0  0.3161308891915508 0.628694810122469 0  0.3427357058453361 0.6409013404351933 0  0.3702002240367352 0.6514505218006744 0  0.3983432399167581 0.6604513875036438 0  0.4270593568227067 0.6679491376555298 0  0.4562674472976953 0.6738281750121143 0  0.4859286043311605 0.6778983675583991 0  0.5159719897343698 0.6799948129943963 0  0.5462703927569978 0.6798192963401719 0  0.3400220338087674 0.6099563832500848 0  0.316270866206933 0.352311782330441 0  0.6358112142858464 0.3202973677763863 0  0.3860839923940269 0.3023198553038949 0  0.4848756247204944 0.2658672303744014 0  0.2572093381192406 0.4056291028507422 0  0.6698937491954597 0.3994657580373338 0  0.2634680846115399 0.5683071473230605 0  0.5591522658795046 0.262165631613236 0  0.4192935821226065 0.6368965731053621 0  0.2154950945153336 0.4669232337479061 0  0.4756075153833591 0.6499003320641626 0  0.683926967955289 0.4814856547647725 0  0.6840960502313342 0.5383190680200294 0  0.6549673246039287 0.6120670399000707 0  0.4317751880072831 0.2853286663795139 0  0.2311563546290636 0.533231118608123 0  0.5871401667537477 0.642866374557995 0  0.5329415917156829 0.6524146648647563 0  0.6016895398684124 0.2823794069184113 0  0.2021533062774186 0.5031491105845067 0  0.3385880281159153 0.3354635193256957 0  0.3435566972074004 0.3657675310738503 0  0.3213741822249357 0.3823911106949214 0  0.3486604576237048 0.3959094174422676 0  0.3719129080018262 0.3783961192192483 0  0.3785704681178402 0.4127321060074491 0  0.4031563045172153 0.3922972976829227 0  0.3479062428050838 0.4308108100569356 0  0.3839523762044318 0.4496891437847316 0  0.3553535007034559 0.4711294385101854 0  0.3890613176551466 0.4887372542362539 0  0.4214803323987491 0.4653817738990519 0  0.4270492279398883 0.5105475264957189 0  0.3590323379872511 0.5097790353296324 0  0.3279506603173835 0.4934521922092803 0  0.3315040077865719 0.529542622249688 0  0.3024671305316107 0.5128283266493013 0  0.2982444348174929 0.4784024761171 0  0.3597083454497601 0.5457318100307379 0  0.2741478002150911 0.4966691845033489 0  0.2703980169222728 0.4647691125768399 0  0.2935264184747357 0.4453402005007954 0  0.4624144525146127 0.4819094005786498 0  0.3332502132825161 0.5620644839864317 0  0.3974555597394073 0.3600894044309478 0  0.4275052117829131 0.371601464740669 0  0.4213798826859516 0.3400284436264349 0  0.4519858215215554 0.3491893521607175 0  0.4579782467323348 0.3866577574628876 0  0.4891511656441672 0.3558191794056192 0  0.4936907523477103 0.4023439402672512 0  0.5274384945155354 0.3746451768894904 0  0.5225134549086707 0.335443171929705 0  0.557786553827034 0.3492740594308403 0  0.5673551653166264 0.3890823469118642 0  0.5945413362430543 0.3643468564850093 0  0.6096692524548908 0.398486397856737 0  0.5815344754654668 0.4299862196867027 0  0.6192586047412667 0.4450294368260539 0  0.625401598893596 0.3724586556530916 0  0.5486665462808814 0.3145768175757656 0  0.5161735132747352 0.3052210536009226 0  0.4715522491938801 0.3229318208296562 0  0.2472709049869865 0.4818564423416707 0  0.2432079118477184 0.4524793237434339 0  0.2790521082193485 0.5264949517634387 0  0.5890375064746941 0.4815872086252345 0  0.6281788144137644 0.4906182282810078 0  0.6500718089215589 0.4618792303384296 0  0.5857383143828729 0.3265075171847667 0  0.6386034561662091 0.4155273498034126 0  0.3070600767563706 0.5493065820861458 0  0.5404718862449721 0.4675132320354283 0  0.3083763470831375 0.5802944512267908 0  0.4624199529090109 0.541741714603273 0  0.4258074437556167 0.5615381670057025 0  0.4688828116966043 0.5842643447560197 0  0.4366733473689225 0.5997539428153627 0  0.3574450171100609 0.582799601477949 0  0.3793956237162
[...]
<PointData  Scalars="v"> 
<DataArray  type="Float64"  Name="v"  format="ascii">0.0000000000000000e+00  0.0000000000000000e+00  0.0000000000000000e+00  0.0000000000000000e+00  0.0000000000000000e+00  0.0000000000000000e+00  0.0000000000000000e+00  0.0000000000000000e+00  2.3051895257559637e-04  2.4893969124908173e-04  0.0000000000000000e+00  0.0000000000000000e+00  0.0000000000000000e+00  0.0000000000000000e+00  0.0000000000000000e+00  0.0000000000000000e+00  0.0000000000000000e+00  0.0000000000000000e+00  0.0000000000000000e+00  0.0000000000000000e+00  0.0000000000000000e+00  0.0000000000000000e+00  0.0000000000000000e+00  0.0000000000000000e+00  0.0000000000000000e+00  0.0000000000000000e+00  0.0000000000000000e+00  0.0000000000000000e+00  0.0000000000000000e+00  0.0000000000000000e+00  0.0000000000000000e+00  0.0000000000000000e+00  0.0000000000000000e+00  0.0000000000000000e+00  0.0000000000000000e+00  0.0000000000000000e+00  0.0000000000000000e+00  0.0000000000000000e+00  0.0000000000000000e+00  0.0000000000000000e+00  0.0000000000000000e+00  0.0000000000000000e+00  0.0000000000000000e+00  0.0000000000000000e+00  0.0000000000000000e+00  0.0000000000000000e+00  0.0000000000000000e+00  0.0000000000000000e+00  0.0000000000000000e+00  0.0000000000000000e+00  0.0000000000000000e+00  0.0000000000000000e+00  0.0000000000000000e+00  0.0000000000000000e+00  0.0000000000000000e+00  0.0000000000000000e+00  0.0000000000000000e+00  0.0000000000000000e+00  0.0000000000000000e+00  0.0000000000000000e+00  0.0000000000000000e+00  0.0000000000000000e+00  0.0000000000000000e+00  0.0000000000000000e+00  0.0000000000000000e+00  0.0000000000000000e+00  0.0000000000000000e+00  0.0000000000000000e+00  0.0000000000000000e+00  0.0000000000000000e+00  0.0000000000000000e+00  0.0000000000000000e+00  0.0000000000000000e+00  0.0000000000000000e+00  0.0000000000000000e+00  0.0000000000000000e+00  0.0000000000000000e+00  0.0000000000000000e+00  0.0000000000000000e+00  0.0000000000000000e+00  0.0000000000000000e+00  0.0000000000000000e+00  0.0000000000000000e+00  0.0000000000000000e+00  0.0000000000000000e+00  0.0000000000000000e+00  0.0000000000000000e+00  0.0000000000000000e+00  0.0000000000000000e+00  0.0000000000000000e+00  0.0000000000000000e+00  0.0000000000000000e+00  0.0000000000000000e+00  0.0000000000000000e+00  0.0000000000000000e+00  0.0000000000000000e+00  0.0000000000000000e+00  0.0000000000000000e+00  0.0000000000000000e+00  0.0000000000000000e+00  0.0000000000000000e+00  0.0000000000000000e+00  0.0000000000000000e+00  0.0000000000000000e+00  0.0000000000000000e+00  0.0000000000000000e+00  0.0000000000000000e+00  0.0000000000000000e+00  0.0000000000000000e+00  0.0000000000000000e+00  0.0000000000000000e+00  0.0000000000000000e+00  0.0000000000000000e+00  0.0000000000000000e+00  0.0000000000000000e+00  0.0000000000000000e+00  0.0000000000000000e+00  0.0000000000000000e+00  0.0000000000000000e+00  0.0000000000000000e+00  0.0000000000000000e+00  0.0000000000000000e+00  0.0000000000000000e+00  0.0000000000000000e+00  0.0000000000000000e+00  0.0000000000000000e+00  0.0000000000000000e+00  0.0000000000000000e+00  0.0000000000000000e+00  0.0000000000000000e+00  0.0000000000000000e+00  0.0000000000000000e+00  0.0000000000000000e+00  0.0000000000000000e+00  0.0000000000000000e+00  0.0000000000000000e+00  0.0000000000000000e+00  0.0000000000000000e+00  0.0000000000000000e+00  0.0000000000000000e+00  0.0000000000000000e+00  0.0000000000000000e+00  0.0000000000000000e+00  0.0000000000000000e+00  0.0000000000000000e+00  0.0000000000000000e+00  0.0000000000000000e+00  0.0000000000000000e+00  0.0000000000000000e+00  0.0000000000000000e+00  0.0000000000000000e+00  0.0000000000000000e+00  0.0000000000000000e+00  0.0000000000000000e+00  0.0000000000000000e+00  0.0000000000000000e+00  0.0000000000000000e+00  0.0000000000000000e+00  0.0000000000000000e+00  0.0000000000000000e+00  0.0000000000000000e+00  0.0000000000000000e+00  0.0000000000000000e+00  0.0000000000000000e+00  0.0000000000000000e+00  0.0000000000000000e+00  0.0000000000000000e+00  0.0000000000000000e+00  0.0000000000000000e+00  0.0000000000000000e+00  0.0000000000000000e+00  0.0000000000000000e+00  0.0000000000000000e+00  0.0000000000000000e+00  0.0000000000000000e+00  0.0000000000000000e+00  0.0000000000000000e+00  0.0000000000000000e+00  2.4995325876747476e-04  2.4931062781778483e-04  2.4784889200810042e-04  2.4551604031155069e-04  2.4236391348150222e-04  2.3909557871074985e-04  2.3567624908641557e-04  2.3226391212429587e-04  2.2835030076948817e-04  2.2409121974332916e-04  2.1989249702070873e-04  2.1502546469502899e-04  2.1019723319047129e-04  2.0464806995060033e-04  1.9945726268649698e-04  1.9458388489593674e-04  1.9037566012607740e-04  1.8707425672790572e-04  1.8541658396617041e-04  1.8488549785796438e-04  1.8475183652659599e-04  1.8452889641588883e-04  1.8447015389333999e-04  1.8423287904785040e-04  1.8360198637953486e-04  1.8203676696235710e-04  1.7984717358783938e-04  1.7731656131204590e-04  1.7431981073486432e-04  1.7077429669252724e-04  1.6744357562767183e-04  1.6361478788981597e-04  1.5990508759111717e-04  1.5524976579622596e-04  1.5116212996852711e-04  1.5110375582460273e-04  1.5624431595093224e-04  1.6370571054108335e-04  1.7334700963540599e-04  1.8273069106766407e-04  1.9216383712693458e-04  2.0094451725169050e-04  2.0885238608299626e-04  2.1649801289473340e-04  2.2323952260561047e-04  2.2926724642612100e-04  2.3435351187657403e-04  2.3887909499923675e-04  2.4264075107617968e-04  2.4567775117962661e-04  2.4770391410749423e-04  2.0890956790902619e-04  1.8467140374643011e-04  2.0571578023878613e-04  1.8957478417278261e-04  1.9317194257856805e-04  1.7757284054952113e-04  2.1772944694527113e-04  1.8952532213924137e-04  1.9547322383780600e-04  2.2514737951503561e-04  1.7069157863099034e-04  2.3320077070744771e-04  2.2853599754689294e-04  2.3438005367346250e-04  2.4032449298796340e-04  1.9195564983924069e-04  1.7917863459024935e-04  2.4042262442893565e-04  2.3871936381965816e-04  2.0014770445934960e-04  1.6900226095970596e-04  1.8657487745221446e-04  1.8843384012079059e-04  1.8643846246575298e-04  1.9026054439742759e-04  1.9222903360650121e-04  1.9553548811970448e-04  1.9694301456749317e-04  1.9246498298497770e-04  1.9937115033551809e-04  1.9719535748064459e-04  2.0350634517000811e-04  2.0541328996546990e-04  2.1169611678440378e-04  2.0140938706674166e-04  1.9477943965726341e-04  1.9919883200794140e-04  1.9187522996968182e-04  1.8812950901842202e-04  2.0591613105815998e-04  1.8500273231811224e-04  1.8215876269858644e-04  1.8519657427749120e-04  2.1240380277860377e-04  2.0315479202080778e-04  1.9393911244313771e-04  1.9766583366600469e-04  1.9474047553280624e-04  1.9768578909804051e-04  2.0143508428187819e-04  2.0103835154489100e-04  2.0650902922525669e-04  2.0623809416323634e-04  2.0121527445746834e-04  2.0534414355225585e-04  2.1091131055509861e-04  2.0986436386630474e-04  2.1538484081870025e-04  2.1698810494815695e-04  2.2127960494873781e-04  2.1278222326415443e-04  2.0087225006835017e-04  1.9802655714168326e-04  1.9692846481689867e-04  1.7891323054191965e-04  1.7606991757357818e-04  1.8852337652144815e-04  2.2449689932428214e-04  2.2774297773772549e-04  2.2456791694610889e-04  2.0426012557224656e-04  2.1860686185370430e-04  1.9671330312755225e-04  2.1788670850406128e-04  2.0069266703288469e-04  2.2093449289280445e-04  2.1842337652879654e-04  2.2591910634785315e-04  2.2348337768451128e-04  2.0949417176752749e-04  2.1160143909782517e-04  2.1549334873559913e-04  1.9473948944147602e-04  2.0030067853765035e-04  1.8205582680711995e-04  1.9652915403717286e-04  1.9084646945026051e-04  1.8710368271864110e-04  1.8232370402857423e-04  1.9038325097948749e-04  1.9212055898876716e-04  2.0534730613502191e-04  2.1017646794592687e-04  1.8238029707449077e-04  2.0811268468261634e-04  2.1122785235021266e-04  2.1443856059340637e-04  2.1974939759112846e-04  1.7971749326866721e-04  2.2941322783201688e-04  2.2924089696376636e-04  2.3104503712216914e-04  2.2758225915001115e-04  2.3266866757800958e-04  2.3577479837646044e-04  2.3247856652643353e-04  2.3669335381696301e-04  2.3626316557019607e-04  2.3251644679203793e-04  2.3655341668016793e-04  2.3909426035480138e-04  2.3941110404922966e-04  2.3449245825593525e-04  2.3895018955847648e-04  2.3580572986335976e-04  1.8005457907368101e-04  2.2416907228797067e-04  2.2200399101660176e-04  1.9443063285882323e-04  1.9590576711923623e-04  2.3174005247193625e-04  2.3011883311973614e-04  1.8863660340468540e-04  1.9357190286931422e-04  1.7414045218311770e-04  1.8356976920615780e-04  2.2019648291315212e-04  2.3673915906634153e-04  2.1162279762575062e-04  1.7335596862620630e-04  1.9156730388467558e-04  2.4130616473194626e-04  2.0251958879517911e-04  1.9341482339776866e-04  2.2000797386947317e-04  2.1160717800933562e-04  2.0436521603788552e-04  1.9160821059407951e-04  2.0077459089409388e-04  1.7051542109187113e-04  2.4202781376561031e-04  1.8449856468644396e-04  2.3302898063660613e-04  2.2130024685255734e-04  1.9491032249817643e-04  1.9634386967614149e-04  2.0525104756373563e-04  2.1604651143992707e-04  2.3102756936432050e-04  1.9214152369420083e-04  2.3229416461969941e-04  1.9860838101292251e-04  2.3900413052411446e-04  2.1547100880150947e-04  2.2232094756756242e-04  2.3421776300891137e-04  2.1442523944306677e-04  2.3385269494440746e-04  2.0075783740240835e-04  2.3449479054877986e-04  1.8836475965407527e-04  2.0615002482060756e-04  1.7142617644025915e-04  2.2463310932837238e-04  2.3826632508154455e-04  1.9537080259222182e-04  2.2626259237632960e-04  1.8953356880025543e-04  2.3055884159815053e-04  2.1838713899511111e-04  1.8540985457014573e-04  2.3877295937923282e-04  2.0202701411030393e-04  1.6627627269386413e-04  2.5852593297683404e-04  2.0656229933119883e-04  2.3557206322613413e-04  2.5517665373219487e-04  1.9528521998136533e-04  2.4979571643839226e-04  2.6037426902236196e-04  1.8073461820212848e-04  2.1702284458510748e-04  1.6193767144186106e-04  2.3718044834721420e-04  2.1711622952421617e-05  2.2110675956615050e-05  2.5579520700697539e-05  1.2704062859373188e-05  1.7107968509243664e-04  3.7687676638942393e-05  1.6654878677655678e-04  3.4775839893793042e-05  1.4094380700596900e-04  2.2674970483986386e-05  2.0779972618122728e-05  1.4585255852408045e-04  2.8774483628574308e-05  1.7218364908033930e-04  2.0485545629794691e-05  1.3270714779317845e-05  1.7197574540776339e-04  1.0150610771345737e-05  1.6998592536903549e-04  1.3527227269132525e-04  2.2782025531024687e-04  2.1982158086285332e-05  2.4364911355986370e-05  2.6665618336104351e-05  1.2357737191512124e-04  2.7666401739677839e-05  1.3649879469525735e-05  1.7621563903152637e-05  1.3185701596161332e-05  1.9872685423690352e-05  1.6779700489350505e-05  3.3984676080746791e-05  1.7300529326047404e-05  7.2405225645877880e-06  1.9511463414319678e-05  8.4355548133950211e-06  1.2222029435257208e-05  1.6371648250079521e-05  6.3408017813824590e-06  1.1693506364935261e-04  9.4516027293978344e-05  9.8263991580395705e-05  8.8467478408109005e-05  6.8085204061737312e-05  6.5926915419172674e-06  6.2547118323211224e-05  8.1326535576910702e-05  4.3275955286528451e-05  2.5366070731657348e-04  2.5435540228716745e-04  2.5972374802773503e-04  2.5459355193231166e-04  2.5867162331754762e-04  2.4801172049671727e-04  2.4357582827206692e-04  2.5138664727218928e-04  2.3192228234798746e-04  2.2526049596305128e-04  2.0936025114653956e-04  2.0077461920745720e-04  1.8130260837363374e-04  1.8926814541136104e-04  2.1819471087498781e-04  1.8897012110666766e-04  2.0221340579992570e-04  1.7310986328181847e-04  1.8789033074728705e-04  1.5870054162755252e-04  1.6542258543115207e-04  1.5629151467156689e-04  1.7060202437702736e-04  1.3790483519755483e-04  1.5152577155647047e-04  1.5653771611514428e-04  2.6191520964240499e-04  2.5142231759266420e-04  2.6551969603465637e-04  2.4705984743935675e-04  2.5970830627290248e-04  2.3655667723724698e-04  2.4797803780723720e-04  2.1932810883980736e-04  2.0687310263640588e-04  2.2847830043097001e-04  1.8559161488963279e-04  1.7307405049965738e-04  2.5596912139675819e-04  2.3416904203736954e-04  2.5977945626699307e-04  2.3650567328125841e-04  2.6041362667207732e-04  2.3486978725530271e-04  2.5670044370306957e-04  2.2943798355732405e-04  2.4950658111351883e-04  2.2061775285342315e-04  2.3872018226862526e-04  2.0776255599749672e-04  2.2223691873206962e-04  1.9089910034282055e-04  2.0227573930040236e-04  1.7054269373270408e-04  1.7768380016039472e-04  1.4719890692270813e-04  1.5064217355265587e-04  1.2233452661327234e-04  1.7721189725789673e-04  1.4801366911705512e-04  2.0437763946150553e-04  2.0102128905057369e-04  1.3805279091889047e-04  1.7026232736720568e-04  1.3986266594890633e-04  1.1837446250599088e-04  1.9908124711933583e-04  1.8594336481704419e-04  1.8101025116303701e-04  1.6146593889181506e-04  1.3213556385443571e-04  1.4083095170537062e-04  1.1134976024498331e-04  1.1883859179789102e-04  1.4568582046537722e-04  1.2259827778408983e-04  1.4623987783253539e-04  1.2247967823249368e-04  1.0005704610470985e-04  9.9067749200089207e-05  1.1838060513997257e-04  7.9021054382843268e-05  9.4164850329388216e-05  1.1018192763489322e-04  9.0581535472177807e-05  1.4947104525273952e-04  1.3781235069375660e-04  2.3260212104556283e-04  1.5735497529138350e-04  1.2320696303626946e-04  2.4596590343873252e-04  1.0913636468848914e-04  1.3408409757724920e-04  1.3900568949650206e-04  1.2730107323095268e-04  1.8747317726880753e-04  2.7270111989759086e-04  2.7345552289619187e-04  8.5501005672689471e-05  9.9121056075404833e-05  7.0922061068438741e-05  1.2454210700969126e-04  1.2407341537875886e-04  1.1107898355841121e-04  8.5593602989088448e-05  9.5685941961182370e-05  2.5023585537699088e-04  1.5822456857979286e-04  1.2016979897454193e-04  1.2157824942289929e-04  2.0496738270238518e-04  1.0311792414297879e-04  9.6593585357099734e-05  1.1196299447736432e-04  1.9073019298202832e-04  2.1514214514160428e-04  1.0780033548158703e-04  1.1134568787386075e-04  8.9312536097016607e-05  6.8553005334531556e-05  7.8587639858492035e-05  1.0539004438458075e-04  8.8454361430421213e-05  2.1558252180592868e-04  1.4289638904743698e-04  1.6865786455575233e-04  1.6941183701483993e-04  1.6674797300402722e-04  2.7313729722875925e-04  2.0755778174326000e-04  1.2505571373075728e-04  1.0282442615410130e-04  9.0062350870112091e-05  8.2557301034467322e-05  9.9757800464139973e-05  6.8497123282158873e-05  1.8746505976666573e-04  1.8363791426990534e-04  1.6230152779573738e-04  1.3704683992301820e-04  6.7798905910591460e-05  2.2407544708163244e-04  2.3363978670664501e-04  8.1086467418532647e-05  8.3612090984516943e-05  6.2319989089927499e-05  4.9668023638140422e-05  8.0135304480983874e-05  6.2295904620957989e-05  1.1451492373421134e-04  9.7649427568250526e-05  7.0446511268846957e-05  7.5865558569804647e-05  1.0264959815990924e-04  8.1132096044106975e-05  1.0678296457654705e-04  8.5622331899691908e-05  1.0991983749899709e-04  8.7870148140848977e-05  1.1387528744881820e-04  8.9349854373578207e-05  1.0961083229918636e-04  8.6990468792239273e-05  1.0335521137048317e-04  8.0575952720067585e-05  9.7982717261705838e-05  7.2938009092590435e-05  8.4968930210968871e-05  6.3216073964297983e-05  7.2563033663838972e-05  5.2488742887218975e-05  5.9086803607389932e-05  6.5991904020589858e-05  4.5015126920353955e-05  8.1265111841798574e-05  6.4939512828651082e-05  3.6047123458304935e-05  4.5564149748905380e-05  5.0046628772386786e-05  7.2422385017656109e-05  1.0495215989487624e-04  5.3428335387025332e-05  3.0102000960460807e-05  7.3348299901882221e-05  5.3457809904651530e-05  3.6581716467499696e-05  6.4525795482638782e-05  2.3042906405500864e-05  6.2178180123129926e-05  1.3168258051429336e-04  8.6652168899317366e-05  7.6872479194724542e-05  5.8685130319996485e-05  2.6861432818172781e-05  1.3632732826843779e-04  5.6346602042467771e-05  9.6120271091924944e-05  6.9792790280923261e-05  7.3423681979633835e-05  1.3592365999151942e-04  6.1596538892847133e-05  4.3741355550767519e-05  3.8216081523866028e-05  6.4415752389257016e-06  8.4003953800735087e-06  5.6175359928138926e-05  5.3787513884434075e-05  4.1730245132309405e-05  2.6351507361222329e-05  2.2079209313640582e-04  8.5599379695850246e-05  1.0369521315945714e-04  7.6546990589666076e-05  2.2261044052333958e-04  8.2873311556369521e-05  6.6133914484813462e-05  8.0900190558480130e-05  3.4256363874285451e-05  1.9989310451686755e-04  2.0417046506511808e-04  1.9506253304114586e-04  6.9622363978368406e-05  2.3544454146838209e-05  1.7395538084210018e-04  5.6641271784274220e-05  5.8263024400970428e-05  7.7949436315790648e-05  5.4205679003492308e-05  4.9043606090319573e-05  9.7809450658213802e-05  1.4828353067956814e-04  1.6411178022576669e-04  1.4997216610989906e-04  1.7123150949926939e-04  8.1642367082795152e-05  5.4474846994146112e-05  2.3384312277880057e-04  2.4678059544520957e-04  3.4883078168038541e-05  7.0123663431090655e-05  5.9808735494585660e-05  2.1958542890484733e-04  4.0573130179881455e-05  2.8400990771455508e-05  1.3956414182476697e-04  2.6102543372459141e-04  2.6714134706679532e-04  2.7082618138968143e-04  3.3505207721688671e-05  3.3165898627323566e-05  1.6349704030699418e-04  1.2587222255192241e-04  8.2765231706896587e-05  1.0877511987262431e-04  5.1682196444503965e-05  5.2028286610200475e-05  7.1821822965924983e-05  4.7839817975227300e-05  6.3806146643047523e-05  3.2242101239225032e-05  3.7899598742141625e-05  1.3204712358312840e-04  1.3325221645088799e-04  2.6533282056292421e-04  2.7527599148527096e-04  5.2485544877105935e-05  1.8511695908437613e-04  8.4817355883152725e-05  5.9029192152994166e-05  2.0410246796093987e-05  2.2321938226748338e-04  1.6767218608730242e-04  1.5032277500030714e-04  1.4340602363197499e-04  2.1906425510259556e-04  2.2991870295811421e-04  1.7126923633188317e-04  1.5009849546034654e-04  1.4757933794837664e-04  1.6288180707062553e-04  4.9556136006161910e-05  5.1670571875855012e-05  1.2446571205614675e-04  9.5409157292637446e-05  9.8525023820986277e-05  9.8496909515085872e-05  2.5350821407976176e-05  3.8609128248671512e-05  1.9582121617711459e-05  1.7778992660287820e-04  1.5634652038389342e-05  1.2850645955900854e-05  5.8829567816692340e-06  2.3050361114995737e-04  2.3238465232216664e-04  2.3915579276311897e-04  2.4205146413420786e-04  2.4405906721684096e-04  9.0970230087114486e-05  1.0632506916557077e-04  1.1822699245435019e-04  1.3243618809833941e-04  1.2426662860496747e-04  1.4439073919347251e-04  1.9247613051065924e-04  1.8206143961186743e-04  1.7649469616269677e-04  1.8973842070616070e-04  1.8945697006005662e-04  3.8718621512066121e-05  1.6211031411274572e-04  2.6373466792018976e-04  1.6954324320988940e-04  2.1142892312071338e-04  1.2412695286077407e-04  2.5917256153177405e-04  2.7103791361779997e-04  2.7026587001351333e-04  2.7887618946288890e-04  2.7923224345863192e-04  2.7783836071594331e-04  2.8107571786678337e-04  2.6900191139478836e-04  2.7572122364456813e-04  2.6740557825845275e-04  2.7211835915875321e-04  2.6454570673279878e-04  2.6613225423393987e-04  2.5803669465647249e-04  2.5390421155231283e-04  2.7421788915108484e-04  2.2220457484415782e-05  2.0478058500117581e-04  1.3829205890294826e-04  1.1593739151235431e-05  1.7257538559340267e-04  2.4321380245034837e-05  1.2940825358635416e-04  1.5077038141446920e-04  1.2175581619546004e-04  1.3777803031455224e-04  1.4340747784207018e-04  4.7180628416451795e-05  3.5385606189716941e-05  1.4770430863366740e-05  1.6997362542332459e-05  2.2252854776377585e-04  1.4188549549155023e-04  2.3004807339125219e-05  2.6748156306408855e-05  2.5639554172444441e-04  2.4255932872625516e-05  2.3251584793844619e-04  2.6453608140359215e-04  9.8417707279671113e-05  5.0233623305265534e-05  8.6125322929806041e-06  1.2935929353134548e-04  1.4968163521656588e-05  1.9946726631022923e-04  2.5720839860703918e-04  2.0444490872358588e-04  2.3014107944410137e-04  2.6804262469091230e-04  2.4260866856839558e-04  3.4327417026203255e-05  7.8615118217004469e-05  7.7474068709815192e-05  1