<?xml version="1.0"?>
<VTKFile type="UnstructuredGrid"  version="0.1"  >
<UnstructuredGrid>
<Piece  NumberOfPoints="1191" NumberOfCells="2284">
<Points>
<DataArray  type="Float64"  NumberOfComponents="3"  format="ascii">0 0 0  0 1 0  1 1 0  1 0 0  1.1 -0.1 0  -0.1 -0.1 0  1.1 1.1 0  -0.1 1.1 0  0.556602413008331 0.5530195156852347 0  0.5865983953787849 0.6917563359673391 0  0 0.9499999999997918 0  0 0.8999999999995836 0  0 0.8499999999996529 0  0 0.7999999999999998 0  0 0.7500000000003466 0  0 0.7000000000006934 0  0 0.6500000000010401 0  0 0.6000000000013869 0  0 0.5500000000017335 0  0 0.5000000000020587 0  0 0.4500000000018723 0  0 0.4000000000016644 0  0 0.3500000000014564 0  0 0.3000000000012483 0  0 0.2500000000010403 0  0 0.2000000000008322 0  0 0.1500000000006241 0  0 0.100000000000416 0  0 0.05000000000020799 0  0.04999999999989965 0 0  0.09999999999981467 0 0  0.1499999999997036 0 0  0.1999999999995579 0 0  0.2499999999994121 0 0  0.2999999999992664 0 0  0.3499999999991206 0 0  0.3999999999989749 0 0  0.4499999999988292 0 0  0.4999999999986943 0 0  0.5499999999988151 0 0  0.5999999999989468 0 0  0.6499999999990784 0 0  0.69999999999921 0 0  0.7499999999993417 0 0  0.7999999999994734 0 0  0.8499999999996051 0 0  0.8999999999997368 0 0  0.9499999999998684 0 0  1 0.04999999999989965 0  1 0.09999999999981467 0  1 0.1499999999997036 0  1 0.1999999999995579 0  1 0.2499999999994121 0  1 0.2999999999992664 0  1 0.3499999999991206 0  1 0.3999999999989749 0  1 0.4499999999988292 0  1 0.4999999999986943 0  1 0.5499999999988151 0  1 0.5999999999989468 0  1 0.6499999999990784 0  1 0.69999999999921 0  1 0.7499999999993417 0  1 0.7999999999994734 0  1 0.8499999999996051 0  1 0.8999999999997368 0  1 0.9499999999998684 0  0.9499999999997918 1 0  0.8999999999995836 1 0  0.8499999999996529 1 0  0.7999999999999998 1 0  0.7500000000003466 1 0  0.7000000000006934 1 0  0.6500000000010401 1 0  0.6000000000013869 1 0  0.5500000000017335 1 0  0.5000000000020587 1 0  0.4500000000018723 1 0  0.4000000000016644 1 0  0.3500000000014564 1 0  0.3000000000012483 1 0  0.2500000000010403 1 0  0.2000000000008322 1 0  0.1500000000006241 1 0  0.100000000000416 1 0  0.05000000000020799 1 0  -0.1 1.05000000000004 0  -0.1 1.000000000000079 0  -0.1 0.9500000000001624 0  -0.1 0.9000000000003032 0  -0.1 0.850000000000444 0  -0.1 0.8000000000005848 0  -0.1 0.7500000000007256 0  -0.1 0.7000000000008665 0  -0.1 0.6500000000010508 0  -0.1 0.6000000000012352 0  -0.1 0.5500000000014196 0  -0.1 0.500000000001539 0  -0.1 0.4500000000014195 0  -0.1 0.4000000000013 0  -0.1 0.3500000000011588 0  -0.1 0.3000000000010178 0  -0.1 0.2500000000008986 0  -0.1 0.2000000000007579 0  -0.1 0.1500000000006174 0  -0.1 0.1000000000005272 0  -0.1 0.05000000000040083 0  -0.1 2.671196597248127e-13 0  -0.1 -0.0499999999998666 0  -0.0500000000000906 -0.1 0  -1.730560139634463e-13 -0.1 0  0.04999999999975802 -0.1 0  0.09999999999961506 -0.1 0  0.1499999999994613 -0.1 0  0.199999999999302 -0.1 0  0.2499999999991446 -0.1 0  0.2999999999990088 -0.1 0  0.3499999999988296 -0.1 0  0.3999999999986936 -0.1 0  0.4499999999985143 -0.1 0  0.4999999999984002 -0.1 0  0.5499999999985247 -0.1 0  0.5999999999986493 -0.1 0  0.6499999999987955 -0.1 0  0.6999999999989417 -0.1 0  0.7499999999990659 -0.1 0  0.7999999999992116 -0.1 0  0.8499999999993573 -0.1 0  0.8999999999994526 -0.1 0  0.949999999999584 -0.1 0  0.9999999999997226 -0.1 0  1.049999999999861 -0.1 0  1.1 -0.0500000000000906 0  1.1 -1.730560139634463e-13 0  1.1 0.04999999999975802 0  1.1 0.09999999999961506 0  1.1 0.1499999999994613 0  1.1 0.199999999999302 0  1.1 0.2499999999991446 0  1.1 0.2999999999990088 0  1.1 0.3499999999988296 0  1.1 0.3999999999986936 0  1.1 0.4499999999985143 0  1.1 0.4999999999984002 0  1.1 0.5499999999985247 0  1.1 0.5999999999986493 0  1.1 0.6499999999987955 0  1.1 0.6999999999989417 0  1.1 0.7499999999990659 0  1.1 0.7999999999992116 0  1.1 0.8499999999993573 0  1.1 0.8999999999994526 0  1.1 0.949999999999584 0  1.1 0.9999999999997226 0  1.1 1.049999999999861 0  1.05000000000004 1.1 0  1.000000000000079 1.1 0  0.9500000000001624 1.1 0  0.9000000000003032 1.1 0  0.850000000000444 1.1 0  0.8000000000005848 1.1 0  0.7500000000007256 1.1 0  0.7000000000008665 1.1 0  0.6500000000010508 1.1 0  0.6000000000012352 1.1 0  0.5500000000014196 1.1 0  0.500000000001539 1.1 0  0.4500000000014195 1.1 0  0.4000000000013 1.1 0  0.3500000000011588 1.1 0  0.3000000000010178 1.1 0  0.2500000000008986 1.1 0  0.2000000000007579 1.1 0  0.1500000000006174 1.1 0  0.1000000000005272 1.1 0  0.05000000000040083 1.1 0  2.671196597248127e-13 1.1 0  -0.0499999999998666 1.1 0  0.6179743824282601 0.6845695782080615 0  0.6482254719045339 0.6718598791654862 0  0.6758800329705636 0.652906518403494 0  0.698197829184696 0.6276821638023475 0  0.7122516681162512 0.597401227414901 0  0.7209032683093142 0.5657746675360809 0  0.7251137993063261 0.5337487158819059 0  0.7261676733705436 0.5017731094787404 0  0.7245427787501504 0.4699992273985746 0  0.7202629585137847 0.4385688996527793 0  0.7133593246388161 0.4077185045915606 0  0.7038938368818204 0.3776259205959262 0  0.6918167219629545 0.3485365368020426 0  0.6770252934593518 0.3208910681471949 0  0.6588890199903541 0.2954017431058447 0  0.637691668202209 0.2729676337323925 0  0.6125549835376016 0.2550804135653689 0  0.5848959864196549 0.2427087549383269 0  0.5554585272016713 0.2369508582757154 0  0.5261597825396178 0.2363365660233914 0  0.4970906300335062 0.239753008804535 0  0.4686827284085051 0.2461612282403545 0  0.440973282634611 0.2551514041760116 0  0.4142101224554886 0.2663278750425783 0  0.3884658271601792 0.2790449810001828 0  0.3632588158410602 0.292969811324406 0  0.3389340082580398 0.3081632177135021 0  0.3155375854513388 0.3245358223608582 0  0.2930708192216318 0.3420196945467782 0  0.2717403546396565 0.3605587265905515 0  0.2520669832109481 0.3806886729087829 0  0.23377116966538 0.4018362854114579 0  0.2172941027250053 0.4242850920471917 0  0.2028162363330356 0.4475161877544205 0  0.1919446085735289 0.4721106490605338 0  0.1878804330387888 0.4978375518105973 0  0.1931523199222812 0.5239229448444215 0  0.2065802118231551 0.5479184290815277 0  0.2246290256961476 0.5699574125829067 0  0.245716325214808 0.5899780273286042 0  0.2686776979565144 0.6082357109083159 0  0.2932902736543552 0.6247448755195062 0  0.3192360156312076 0.639588772209005 0  0.3461349415595226 0.6528144405457015 0  0.3740555357526782 0.6642913327558244 0  0.4027804890275885 0.6741140597472882 0  0.4321971636721811 0.6823167674236065 0  0.4622117907031012 0.6887130337283359 0  0.4927826365581656 0.6931228372445908 0  0.5238024433238665 0.695364543491276 0  0.5551119469314719 0.6950973012549547 0  0.3443042346114042 0.6208909030428565 0  0.321173300921077 0.3557381168625922 0  0.646241145254562 0.323198107517115 0  0.3914262353397737 0.3048453399255157 0  0.4914991163005566 0.2680578849621381 0  0.2623157127015799 0.4100279101416352 0  0.6825634598389315 0.4040542829936525 0  0.2677057089987643 0.5761531415196148 0  0.5669120163757209 0.2646063757055734 0  0.4249126373199621 0.6500696209088793 0  0.2214795513743469 0.4719912252764246 0  0.4826056181553839 0.6640354802019731 0  0.697819735509799 0.4885005213766678 0  0.6981275174003126 0.5472192551016145 0  0.6677205950693919 0.6238208167067607 0  0.4377181966006843 0.2876908094355333 0  0.2363914576941328 0.53946998391571 0  0.5976340334844159 0.6564734052190205 0  0.5416622323123037 0.6667054131330096 0  0.6105824078619241 0.2849502664910846 0  0.2082423693106105 0.5082629893841041 0  0.3435786371667644 0.338574011918825 0  0.3491400683204064 0.3697015187704095 0  0.3268887505894638 0.386598773333367 0  0.3547588562119984 0.4006928204264981 0  0.3781219376483407 0.3828913513619688 0  0.3852705923994023 0.4182595074952814 0  0.4100138878180966 0.397440323558346 0  0.3543650902004374 0.436558291521966 0  0.3909673576089651 0.4563638723589435 0  0.3620568227262341 0.4781358890929577 0  0.3961561197471603 0.4966722806975222 0  0.4290827534344432 0.472879336899838 0  0.4346400030274321 0.5195401560745089 0  0.3655952731191311 0.5180098641905861 0  0.3343039102051027 0.5007485273699177 0  0.3375085137339522 0.5379523692844442 0  0.3084345952780192 0.5202510867731347 0  0.304431843469386 0.4848379223259696 0  0.3658491170157076 0.5550835207196616 0  0.2801322854733245 0.5031666217734302 0  0.2764314761242208 0.4704705148493922 0  0.2995668996478118 0.4508726450839839 0  0.4707399987017016 0.4901880348247786 0  0.3386611540153153 0.5714579550377948 0  0.4038277352831431 0.3642737214708562 0  0.4345226009436212 0.3763321715664553 0  0.4278878456669148 0.3438271692840382 0  0.4591500404870628 0.3534455267543875 0  0.4656953928885186 0.3920115977228055 0  0.4970776951417786 0.3604420262099297 0  0.5022359075936416 0.408289500782898 0  0.5363592754238741 0.3798428948510195 0  0.5308024649156913 0.339596447882975 0  0.5670030584777985 0.3537327669644939 0  0.577325775842899 0.3945539551499859 0  0.6048084322283678 0.3689519170764985 0  0.6207622327695465 0.4038898168286434 0  0.5922592183617391 0.4365416091945969 0  0.6310502396180666 0.4517171325731543 0  0.6365264689533443 0.3769311573073526 0  0.5571434006788751 0.3182034242305147 0  0.5238831432960013 0.3085999114554738 0  0.4787107723493013 0.326572866891342 0  0.2532927825572126 0.4875641352521684 0  0.2490346353646545 0.4576303925431507 0  0.2846278225788939 0.5338068978576982 0  0.6002311367277439 0.4896765800615775 0  0.6404531050909885 0.4986363430603559 0  0.6628385151885295 0.4687188018132437 0  0.5951840122081306 0.3302392712635784 0  0.6506384811268713 0.421075933278683 0  0.3124048293757505 0.557808566319634 0  0.5504323064745011 0.4754065923568747 0  0.31291315107739 0.5896664512266594 0  0.4704959658864525 0.5520002823044881 0  0.4329290431642509 0.5722100031778217 0  0.4766833026370786 0.5960083869553349 0  0.4434574927510819 0.6118249308883891 0  0.3628157972435382 0.593260593338546 0  0.385527303622972 0.5
[...]
<PointData  Scalars="v"> 
<DataArray  type="Float64"  Name="v"  format="ascii">0.0000000000000000e+00  0.0000000000000000e+00  0.0000000000000000e+00  0.0000000000000000e+00  0.0000000000000000e+00  0.0000000000000000e+00  0.0000000000000000e+00  0.0000000000000000e+00  1.0085321958732840e-04  1.1533613458744870e-04  0.0000000000000000e+00  0.0000000000000000e+00  0.0000000000000000e+00  0.0000000000000000e+00  0.0000000000000000e+00  0.0000000000000000e+00  0.0000000000000000e+00  0.0000000000000000e+00  0.0000000000000000e+00  0.0000000000000000e+00  0.0000000000000000e+00  0.0000000000000000e+00  0.0000000000000000e+00  0.0000000000000000e+00  0.0000000000000000e+00  0.0000000000000000e+00  0.0000000000000000e+00  0.0000000000000000e+00  0.0000000000000000e+00  0.0000000000000000e+00  0.0000000000000000e+00  0.0000000000000000e+00  0.0000000000000000e+00  0.0000000000000000e+00  0.0000000000000000e+00  0.0000000000000000e+00  0.0000000000000000e+00  0.0000000000000000e+00  0.0000000000000000e+00  0.0000000000000000e+00  0.0000000000000000e+00  0.0000000000000000e+00  0.0000000000000000e+00  0.0000000000000000e+00  0.0000000000000000e+00  0.0000000000000000e+00  0.0000000000000000e+00  0.0000000000000000e+00  0.0000000000000000e+00  0.0000000000000000e+00  0.0000000000000000e+00  0.0000000000000000e+00  0.0000000000000000e+00  0.0000000000000000e+00  0.0000000000000000e+00  0.0000000000000000e+00  0.0000000000000000e+00  0.0000000000000000e+00  0.0000000000000000e+00  0.0000000000000000e+00  0.0000000000000000e+00  0.0000000000000000e+00  0.0000000000000000e+00  0.0000000000000000e+00  0.0000000000000000e+00  0.0000000000000000e+00  0.0000000000000000e+00  0.0000000000000000e+00  0.0000000000000000e+00  0.0000000000000000e+00  0.0000000000000000e+00  0.0000000000000000e+00  0.0000000000000000e+00  0.0000000000000000e+00  0.0000000000000000e+00  0.0000000000000000e+00  0.0000000000000000e+00  0.0000000000000000e+00  0.0000000000000000e+00  0.0000000000000000e+00  0.0000000000000000e+00  0.0000000000000000e+00  0.0000000000000000e+00  0.0000000000000000e+00  0.0000000000000000e+00  0.0000000000000000e+00  0.0000000000000000e+00  0.0000000000000000e+00  0.0000000000000000e+00  0.0000000000000000e+00  0.0000000000000000e+00  0.0000000000000000e+00  0.0000000000000000e+00  0.0000000000000000e+00  0.0000000000000000e+00  0.0000000000000000e+00  0.0000000000000000e+00  0.0000000000000000e+00  0.0000000000000000e+00  0.0000000000000000e+00  0.0000000000000000e+00  0.0000000000000000e+00  0.0000000000000000e+00  0.0000000000000000e+00  0.0000000000000000e+00  0.0000000000000000e+00  0.0000000000000000e+00  0.0000000000000000e+00  0.0000000000000000e+00  0.0000000000000000e+00  0.0000000000000000e+00  0.0000000000000000e+00  0.0000000000000000e+00  0.0000000000000000e+00  0.0000000000000000e+00  0.0000000000000000e+00  0.0000000000000000e+00  0.0000000000000000e+00  0.0000000000000000e+00  0.0000000000000000e+00  0.0000000000000000e+00  0.0000000000000000e+00  0.0000000000000000e+00  0.0000000000000000e+00  0.0000000000000000e+00  0.0000000000000000e+00  0.0000000000000000e+00  0.0000000000000000e+00  0.0000000000000000e+00  0.0000000000000000e+00  0.0000000000000000e+00  0.0000000000000000e+00  0.0000000000000000e+00  0.0000000000000000e+00  0.0000000000000000e+00  0.0000000000000000e+00  0.0000000000000000e+00  0.0000000000000000e+00  0.0000000000000000e+00  0.0000000000000000e+00  0.0000000000000000e+00  0.0000000000000000e+00  0.0000000000000000e+00  0.0000000000000000e+00  0.0000000000000000e+00  0.0000000000000000e+00  0.0000000000000000e+00  0.0000000000000000e+00  0.0000000000000000e+00  0.0000000000000000e+00  0.0000000000000000e+00  0.0000000000000000e+00  0.0000000000000000e+00  0.0000000000000000e+00  0.0000000000000000e+00  0.0000000000000000e+00  0.0000000000000000e+00  0.0000000000000000e+00  0.0000000000000000e+00  0.0000000000000000e+00  0.0000000000000000e+00  0.0000000000000000e+00  0.0000000000000000e+00  0.0000000000000000e+00  0.0000000000000000e+00  0.0000000000000000e+00  0.0000000000000000e+00  0.0000000000000000e+00  0.0000000000000000e+00  0.0000000000000000e+00  0.0000000000000000e+00  0.0000000000000000e+00  0.0000000000000000e+00  0.0000000000000000e+00  0.0000000000000000e+00  0.0000000000000000e+00  0.0000000000000000e+00  0.0000000000000000e+00  1.1515744372879257e-04  1.1378329423668769e-04  1.1189762436223437e-04  1.0965601139037657e-04  1.0730168568729933e-04  1.0497115376326164e-04  1.0261648984544869e-04  1.0034238682830545e-04  9.7736944289096800e-05  9.4926560897457595e-05  9.2142635422269082e-05  8.8945668478494709e-05  8.5790557916727659e-05  8.2241383207479747e-05  7.9028732271466720e-05  7.6209407938381143e-05  7.3905911062259575e-05  7.2333546960406397e-05  7.1702907841881449e-05  7.1720369279130669e-05  7.1945661820761541e-05  7.2104127120739241e-05  7.2244840235071605e-05  7.2163806816245900e-05  7.1750235394583175e-05  7.0736648612510023e-05  6.9277570948259775e-05  6.7510482184011830e-05  6.5388593250326297e-05  6.2878352809470661e-05  6.0539006224081008e-05  5.7917056441569600e-05  5.5487535156010576e-05  5.2631289778348450e-05  5.0350411342481870e-05  5.0651176569070556e-05  5.4002397608218508e-05  5.8657928714807163e-05  6.5127309210615298e-05  7.1638459324739018e-05  7.8340791186951307e-05  8.4600415968199592e-05  9.0325686507897093e-05  9.5788787897548296e-05  1.0048061321848432e-04  1.0455713925140436e-04  1.0789755508707087e-04  1.1076342628739852e-04  1.1298028568895713e-04  1.1457306254463569e-04  1.1528924885808715e-04  8.8963754886810690e-05  7.1404811151886229e-05  8.3229423634476510e-05  7.4555433590575072e-05  7.6425256053644204e-05  6.6881964946961635e-05  9.0824874931069201e-05  7.5688026973506447e-05  7.7364043325434928e-05  9.9827134896323581e-05  6.2681849468453537e-05  1.0492710285729773e-04  9.8036850146918989e-05  1.0214055618224256e-04  1.0685702413754287e-04  7.5872353048559511e-05  6.8603216948792258e-05  1.0813400216667712e-04  1.0798649517247752e-04  7.9939860356207143e-05  6.1879072228376744e-05  7.2627782581301975e-05  7.3650017823689710e-05  7.2416305700370284e-05  7.4761249621510810e-05  7.5932914754363908e-05  7.8020706475262516e-05  7.8774163659351006e-05  7.6239924226136080e-05  8.0605526097544020e-05  7.9498048217821192e-05  8.3575445947484396e-05  8.4418321157364188e-05  8.8963864980393743e-05  8.2614928625552301e-05  7.8245354978015089e-05  8.1535295869264172e-05  7.6634641600530068e-05  7.3897074439897281e-05  8.6064174100878497e-05  7.2082417666641837e-05  7.0008969852702229e-05  7.1792733154985540e-05  8.8788561330959204e-05  8.4572285304268630e-05  7.6933109302377428e-05  7.9128191143561772e-05  7.7387131741132485e-05  7.9060564094063336e-05  8.1334167739821942e-05  8.0934462150716494e-05  8.4333850622694806e-05  8.3956550235640234e-05  8.0918660614959397e-05  8.3278705491076838e-05  8.6730506160420046e-05  8.5956872387610693e-05  8.9460954328876653e-05  9.0613624440807149e-05  9.3347904170624642e-05  8.7732700068099187e-05  8.0591803624812530e-05  7.9054508519656917e-05  7.8559259626754236e-05  6.8074137761793874e-05  6.6067982846543575e-05  7.4639562898014131e-05  9.5661507753327506e-05  9.7781088243881824e-05  9.5456283327987240e-05  8.2485215859024456e-05  9.1493032795031434e-05  8.0222083030012897e-05  9.1566983007301017e-05  8.3200040725054679e-05  9.5355291414567022e-05  9.4255069766267875e-05  9.9215379363296302e-05  9.8127465833915161e-05  8.8950109740159119e-05  9.0020498875235578e-05  9.2964968359703581e-05  7.7369807419176966e-05  8.0131154060554010e-05  7.0323181336049838e-05  7.8114632699516522e-05  7.5432172215560936e-05  7.2887407000323955e-05  6.9882489478608991e-05  7.4851237530062600e-05  7.5953222325759741e-05  8.3950678438723489e-05  8.8620740027982065e-05  6.9939177731059873e-05  8.4790807548976629e-05  8.6679460558823651e-05  9.2666657397644442e-05  9.6138746448579834e-05  6.8310427718345281e-05  1.0262170673523351e-04  1.0199042973432455e-04  1.0264794305912279e-04  9.9695135170974213e-05  1.0320452706537757e-04  1.0462869687466709e-04  1.0153276058404161e-04  1.0457751074581612e-04  1.0554685982412096e-04  1.0113956787853297e-04  1.0403505514402983e-04  1.0681210878167538e-04  1.0655210745999658e-04  1.0491062107772599e-04  1.0746232204001760e-04  1.0637746522285003e-04  6.8451310870818236e-05  9.5069452084806487e-05  9.3667205373584658e-05  7.7182448418903484e-05  7.7923560581148239e-05  1.0025804186050416e-04  9.9288748311317007e-05  7.3920853246422569e-05  7.6531386077436381e-05  6.4709127717353017e-05  7.1675186479109343e-05  9.6059740872226208e-05  1.0389724395551604e-04  8.7394353881372418e-05  6.4602424440181151e-05  7.5682964305753044e-05  1.0824758893673401e-04  8.1298454698660973e-05  7.6331820196930798e-05  9.3789324262747166e-05  8.7740320409987628e-05  8.2481765352136659e-05  7.5614947837490378e-05  8.1255223323039403e-05  6.2438645898195037e-05  1.0839253577707181e-04  7.1217984885596275e-05  1.0437092687341938e-04  9.3152691336920808e-05  7.9454436145240978e-05  7.7728920105922414e-05  8.6619446322987986e-05  8.9785182188143608e-05  1.0017476859356284e-04  7.7283358532592787e-05  1.0082619236454249e-04  7.9457284468711440e-05  1.0566054116945083e-04  9.2602118016586133e-05  9.6812215294125552e-05  1.0247883341980924e-04  8.8681658552370053e-05  1.0360592754614531e-04  8.1071964038887981e-05  1.0243223842256140e-04  7.3622005345287127e-05  8.6906149386217980e-05  6.3513330563866793e-05  9.5637058773163154e-05  1.0667048196077392e-04  7.7570275531133924e-05  1.0028955206801076e-04  7.4636082680252884e-05  9.9735562590300660e-05  9.1428992296216244e-05  7.2743414760310249e-05  1.0576452979495380e-04  8.1103646070719587e-05  6.0021132368873078e-05  1.1931388762748551e-04  9.0582194341854236e-05  1.1157249684358434e-04  1.2480136392677965e-04  7.6344174002846609e-05  1.1147097869850165e-04  1.2508842614542446e-04  6.8066537761783354e-05  9.0241599859810321e-05  5.9174943735348711e-05  1.0317322623708252e-04  7.5625922220470596e-06  7.9578651296414942e-06  1.2271744547842882e-05  2.9308166728688122e-06  6.5848624347332159e-05  1.8191346022757416e-05  6.2175535491638790e-05  1.4196917912541006e-05  4.4814977231366149e-05  6.8605893322442918e-06  5.8358669694204699e-06  4.7389742965229618e-05  1.1132385203674930e-05  6.6454419600495650e-05  5.1974822895014387e-06  2.9930185773946258e-06  6.4206808798943267e-05  -5.6358910180828548e-07  6.4350503259958140e-05  4.0237157194643656e-05  9.7236178281925452e-05  6.9832904281790790e-06  7.0548633384703555e-06  7.0210878835692610e-06  3.3681688288351727e-05  8.6574256006756570e-06  3.0780659320910873e-06  7.7571807806668057e-06  -1.1364358948638048e-06  5.6592831846816635e-06  5.9683663608058810e-06  1.4974404880474788e-05  6.4557602437108656e-06  -9.2382902287366200e-08  1.4748596902034145e-06  1.7125944367643952e-06  5.6106189307805493e-06  -1.0703104229549319e-06  5.6718258891648646e-07  3.0563539672520267e-05  1.9184008932780085e-05  2.0418531934253064e-05  1.7386631431542255e-05  9.0124537339112011e-06  2.2766815887825613e-06  8.3337680314258546e-06  1.5837793181881806e-05  2.6163849908346227e-06  1.1443339339609458e-04  1.1401687209981072e-04  1.1815353333137665e-04  1.1440325697188951e-04  1.1800480099748318e-04  1.1146380385884304e-04  1.0785018207854532e-04  1.1506746227088020e-04  1.0252834749473430e-04  9.7783102342316000e-05  9.0667825471946661e-05  8.5016814460786086e-05  7.6372440242714455e-05  8.1746620366054208e-05  9.3030861905993485e-05  7.8218986589571868e-05  8.4179843296604485e-05  6.9727073004730494e-05  7.6386123276561373e-05  6.6483797448753848e-05  7.1124984372243947e-05  6.1118667478902641e-05  6.7463247240194749e-05  5.2216111135921588e-05  5.8078748118777649e-05  6.2605990684476729e-05  1.2188057703144206e-04  1.1740683243963554e-04  1.2655225915009615e-04  1.1744518164361151e-04  1.2638065003018866e-04  1.1423424188101914e-04  1.2277618824114441e-04  1.0719264628491191e-04  9.8578535767341872e-05  1.1448034457743053e-04  8.9041597703712550e-05  8.0902762393256347e-05  1.2995643165465546e-04  1.2005563224775262e-04  1.3493699826961825e-04  1.2368980687334558e-04  1.3787671905109497e-04  1.2473142536672906e-04  1.3781516246748847e-04  1.2313369227630804e-04  1.3506690385203302e-04  1.1903892089021553e-04  1.2947827582832493e-04  1.1209673861461453e-04  1.1991840779527495e-04  1.0227348208048163e-04  1.0775033597876715e-04  9.0143948496679806e-05  9.2721931589842603e-05  7.6180978626322251e-05  7.6235228366429111e-05  6.1583228639687488e-05  8.9970006239926213e-05  7.2148739846714032e-05  1.0517379762999228e-04  1.0640650217232268e-04  7.2201742266503574e-05  8.2613656779476104e-05  6.4356773313115181e-05  5.4997225785328126e-05  1.0065488276781118e-04  9.9584514059701423e-05  7.2268990222998372e-05  6.2339606644724364e-05  4.8770542604608911e-05  5.2116749655378539e-05  3.9165008519159650e-05  4.1567378252184095e-05  5.3610341903361610e-05  4.2421966253337961e-05  5.3036276945560443e-05  4.1592529040151508e-05  3.2230466031197012e-05  3.1220676184508691e-05  3.9091147111193719e-05  2.3480904563074261e-05  2.8865422278775999e-05  3.5164455977752671e-05  2.9933969626797327e-05  7.0000498888212338e-05  6.2908177486872043e-05  1.0815012203839228e-04  7.1622917210004846e-05  5.4787865510962497e-05  1.3295464261638061e-04  4.7159577528778714e-05  5.5800040330680636e-05  5.9346311238923019e-05  5.3767321497098721e-05  7.5244156637585782e-05  1.3360641013326446e-04  1.4586831437266791e-04  2.5405036415103241e-05  3.0613390108872350e-05  2.0074527578501188e-05  5.0334593168577085e-05  4.0859055401574810e-05  3.5406597545021581e-05  2.5649585583187410e-05  2.9624646676308019e-05  1.1108764804095085e-04  7.6039432628524512e-05  5.5916413405137744e-05  4.5486650871286586e-05  8.4724508962499368e-05  3.7120345976652110e-05  3.7540956517981157e-05  4.1773898227753659e-05  9.1932370857309421e-05  1.0722062322926903e-04  4.4459563567170750e-05  4.7014780321875862e-05  3.9260495203816924e-05  2.0018057699496589e-05  2.3818631922251117e-05  3.3698256308844735e-05  2.7779193444467577e-05  9.0781821758757175e-05  5.8640831553762908e-05  7.4275858020458478e-05  6.4936022280273400e-05  6.2740924734805751e-05  1.3994831162921818e-04  8.5887868295093283e-05  5.9767889301321567e-05  4.5594680767603609e-05  3.9016345129397284e-05  2.7495871147009479e-05  3.1411047500482763e-05  1.8447236118571111e-05  7.3926529702867300e-05  7.1096967652304677e-05  5.9702989294761147e-05  4.6429139862039321e-05  2.4113362172467344e-05  1.1631089909345681e-04  1.1856567807012544e-04  3.3032662665105126e-05  3.4732157936094831e-05  1.7243687280601941e-05  1.2991570602526052e-05  2.6596582978273760e-05  1.9340802884322917e-05  3.7743502711843352e-05  3.1706382140375053e-05  2.1882343866934294e-05  2.4262670929777497e-05  3.4405173603556139e-05  2.6729136367197249e-05  3.6950246985341938e-05  2.8996078752658466e-05  3.8960216301617811e-05  3.0287047010565477e-05  4.1053609279167525e-05  3.0884562770944250e-05  3.9112080972628743e-05  2.9367670433144153e-05  3.5648442962232204e-05  2.5690561177508393e-05  3.1975812790596883e-05  2.1097594207587561e-05  2.4533580147110497e-05  1.5598115130444029e-05  1.7458786698884877e-05  1.0038092553498958e-05  1.0607355929623909e-05  2.0848424091319043e-05  9.1201480008804270e-06  1.9137273855491357e-05  1.0855161674645394e-05  5.0442617282911602e-06  4.9032482953552137e-06  4.8117970344451932e-06  1.1881649749759982e-05  3.3484464599471931e-05  4.5793038972860053e-06  4.6608027295463671e-06  1.0970285689250911e-05  3.7108120427914443e-06  7.8017981914041248e-06  2.1488324241125050e-05  2.0219172842229989e-06  2.0353231697388936e-05  4.4568374848425965e-05  3.9545550239717357e-05  2.3219462781028836e-05  1.6202076880415152e-05  1.8476355894142782e-06  6.0303700970833341e-05  1.5014208061773826e-05  4.4954653553885988e-05  3.1111834170826754e-05  3.4390269099119589e-05  5.0672040353106299e-05  1.7395271959453728e-05  1.2067761269913608e-05  9.3576965234972977e-06  1.2840705707171556e-06  3.8204830660216682e-06  8.3300127860246515e-06  1.5142898564091315e-05  1.0315530036446307e-05  5.9698640248101508e-06  9.3364706883242759e-05  3.0364688948236665e-05  3.8483998001775253e-05  3.0416467843617255e-05  1.0798796915679734e-04  3.7010584472695278e-05  2.3206128684652281e-05  2.9628291509551722e-05  1.1982478934015862e-06  8.0251201305800671e-05  8.3211315548593684e-05  7.6889126100131085e-05  2.3650850891657141e-05  3.9454862822564508e-06  6.4846545955347061e-05  2.2758507280340931e-05  2.3739763932002778e-05  1.1911375717041956e-05  3.5789929277889750e-06  2.9169502975186749e-06  2.1182815850072980e-05  5.1813699217893634e-05  5.9266666762516874e-05  5.2397112792113092e-05  6.3220286507710590e-05  3.4311731660226360e-05  2.2324454382698424e-05  1.1446766809628905e-04  1.2587930567317950e-04  -3.8793826307052816e-07  3.0059414476873072e-05  2.5137148306107690e-05  9.2429237565452057e-05  1.0458949346981858e-05  6.5017894999159826e-06  4.8421254406949089e-05  1.2234897750799573e-04  1.2580581133263112e-04  1.3010268300440078e-04  1.3312288576172172e-05  1.3229398816202790e-05  8.0657359287015894e-05  6.1640433894398898e-05  2.0817900986208222e-05  3.1754811690914970e-05  2.3320529919276117e-05  2.4307346795896758e-05  3.4695464928645414e-05  2.2802083572828328e-05  3.1308796888416134e-05  1.4938020561989857e-05  1.8246603178352840e-05  4.7923481776194468e-05  4.9084334644709444e-05  1.2692317961054381e-04  1.3535312424337273e-04  1.0339658597556686e-05  7.0377709752839462e-05  2.9293338462554437e-05  2.4380800675319964e-05  7.9384153001678084e-06  1.0447632325714826e-04  6.2521944394668946e-05  5.4812127779825813e-05  5.1014116013795294e-05  9.2558716467907562e-05  9.8676351646072668e-05  7.7312129316461383e-05  5.1145043764269355e-05  5.2127117994871209e-05  6.2750254064873219e-05  1.5307193866120773e-05  2.2152888009970787e-05  3.3833157540509256e-05  1.9107009133370115e-05  2.3077469122354793e-05  2.4404538914812782e-05  4.3495584218655521e-06  9.9641555344004663e-06  -1.1720677718688261e-07  6.7231006116245728e-05  2.8903197828223049e-07  5.0568431681934900e-07  5.3871419978086392e-08  9.9031116646498282e-05  1.0015403546024991e-04  1.0404630257479471e-04  1.0578071617440919e-04  1.0716824360473402e-04  2.1227443224434539e-05  3.0145451439823498e-05  3.4437302364444398e-05  4.2778818816990695e-05  4.0134039365054997e-05  4.8008661770299731e-05  7.7342806029188319e-05  7.3165175150105867e-05  7.3212851081778718e-05  8.0515624744448188e-05  8.3894508903656486e-05  1.5859986375606778e-05  7.3568662920944102e-05  1.2205946823179290e-04  6.4789479697136769e-05  8.6540359136385691e-05  4.0946392028516417e-05  1.2537995703736595e-04  1.3484085888831605e-04  1.3593530492367361e-04  1.4319329274853628e-04  1.4164835152599342e-04  1.4434073505922171e-04  1.4563457015879031e-04  1.3653541753325753e-04  1.4459613075446992e-04  1.3697962839880081e-04  1.4409436426273981e-04  1.3675272517558903e-04  1.4116141394351626e-04  1.3316318829132890e-04  1.2681993488046736e-04  1.4685667585582923e-04  5.8631393543285379e-06  9.6408069923440548e-05  4.7632004235911502e-05  -8.8006882746404335e-07  6.6857468346128061e-05  8.1066186751937136e-06  4.7492927582532220e-05  5.7106130935847903e-05  4.3267595270225640e-05  4.9259312332130940e-05  5.3387592940756264e-05  1.4649549547263120e-05  1.0233243778632379e-05  3.0727030476423203e-06  3.7804391296399904e-06  9.3873438508220756e-05  4.4487083610957977e-05  7.3631860066199370e-06  8.2022594473044137e-06  1.3533708342447292e-04  -8.6230723690625016e-07  1.0024978182799068e-04  1.4314274418969448e-04  2.8571599706055301e-05  1.6170886522253684e-05  -2.6298167214253650e-07  4.7552995171638294e-05  3.2034808328806820e-06  8.1991834627855755e-05  1.2512766677369536e-04  1.0689904460430550e-04  1.2285709953073026e-04  1.3399181314996162e-04  1.2739131541485350e-04  1.4792746313620272e-05  3.8464395490046185e-05  3.86183128531876