<?xml version="1.0"?>
<VTKFile type="UnstructuredGrid"  version="0.1"  >
<UnstructuredGrid>
<Piece  NumberOfPoints="1191" NumberOfCells="2284">
<Points>
<DataArray  type="Float64"  NumberOfComponents="3"  format="ascii">0 0 0  0 1 0  1 1 0  1 0 0  1.1 -0.1 0  -0.1 -0.1 0  1.1 1.1 0  -0.1 1.1 0  0.5619930718459982 0.5588567613728262 0  0.5918604248961059 0.6992926116390538 0  0 0.9499999999997918 0  0 0.8999999999995836 0  0 0.8499999999996529 0  0 0.7999999999999998 0  0 0.7500000000003466 0  0 0.7000000000006934 0  0 0.6500000000010401 0  0 0.6000000000013869 0  0 0.5500000000017335 0  0 0.5000000000020587 0  0 0.4500000000018723 0  0 0.4000000000016644 0  0 0.3500000000014564 0  0 0.3000000000012483 0  0 0.2500000000010403 0  0 0.2000000000008322 0  0 0.1500000000006241 0  0 0.100000000000416 0  0 0.05000000000020799 0  0.04999999999989965 0 0  0.09999999999981467 0 0  0.1499999999997036 0 0  0.1999999999995579 0 0  0.2499999999994121 0 0  0.2999999999992664 0 0  0.3499999999991206 0 0  0.3999999999989749 0 0  0.4499999999988292 0 0  0.4999999999986943 0 0  0.5499999999988151 0 0  0.5999999999989468 0 0  0.6499999999990784 0 0  0.69999999999921 0 0  0.7499999999993417 0 0  0.7999999999994734 0 0  0.8499999999996051 0 0  0.8999999999997368 0 0  0.9499999999998684 0 0  1 0.04999999999989965 0  1 0.09999999999981467 0  1 0.1499999999997036 0  1 0.1999999999995579 0  1 0.2499999999994121 0  1 0.2999999999992664 0  1 0.3499999999991206 0  1 0.3999999999989749 0  1 0.4499999999988292 0  1 0.4999999999986943 0  1 0.5499999999988151 0  1 0.5999999999989468 0  1 0.6499999999990784 0  1 0.69999999999921 0  1 0.7499999999993417 0  1 0.7999999999994734 0  1 0.8499999999996051 0  1 0.8999999999997368 0  1 0.9499999999998684 0  0.9499999999997918 1 0  0.8999999999995836 1 0  0.8499999999996529 1 0  0.7999999999999998 1 0  0.7500000000003466 1 0  0.7000000000006934 1 0  0.6500000000010401 1 0  0.6000000000013869 1 0  0.5500000000017335 1 0  0.5000000000020587 1 0  0.4500000000018723 1 0  0.4000000000016644 1 0  0.3500000000014564 1 0  0.3000000000012483 1 0  0.2500000000010403 1 0  0.2000000000008322 1 0  0.1500000000006241 1 0  0.100000000000416 1 0  0.05000000000020799 1 0  -0.1 1.05000000000004 0  -0.1 1.000000000000079 0  -0.1 0.9500000000001624 0  -0.1 0.9000000000003032 0  -0.1 0.850000000000444 0  -0.1 0.8000000000005848 0  -0.1 0.7500000000007256 0  -0.1 0.7000000000008665 0  -0.1 0.6500000000010508 0  -0.1 0.6000000000012352 0  -0.1 0.5500000000014196 0  -0.1 0.500000000001539 0  -0.1 0.4500000000014195 0  -0.1 0.4000000000013 0  -0.1 0.3500000000011588 0  -0.1 0.3000000000010178 0  -0.1 0.2500000000008986 0  -0.1 0.2000000000007579 0  -0.1 0.1500000000006174 0  -0.1 0.1000000000005272 0  -0.1 0.05000000000040083 0  -0.1 2.671196597248127e-13 0  -0.1 -0.0499999999998666 0  -0.0500000000000906 -0.1 0  -1.730560139634463e-13 -0.1 0  0.04999999999975802 -0.1 0  0.09999999999961506 -0.1 0  0.1499999999994613 -0.1 0  0.199999999999302 -0.1 0  0.2499999999991446 -0.1 0  0.2999999999990088 -0.1 0  0.3499999999988296 -0.1 0  0.3999999999986936 -0.1 0  0.4499999999985143 -0.1 0  0.4999999999984002 -0.1 0  0.5499999999985247 -0.1 0  0.5999999999986493 -0.1 0  0.6499999999987955 -0.1 0  0.6999999999989417 -0.1 0  0.7499999999990659 -0.1 0  0.7999999999992116 -0.1 0  0.8499999999993573 -0.1 0  0.8999999999994526 -0.1 0  0.949999999999584 -0.1 0  0.9999999999997226 -0.1 0  1.049999999999861 -0.1 0  1.1 -0.0500000000000906 0  1.1 -1.730560139634463e-13 0  1.1 0.04999999999975802 0  1.1 0.09999999999961506 0  1.1 0.1499999999994613 0  1.1 0.199999999999302 0  1.1 0.2499999999991446 0  1.1 0.2999999999990088 0  1.1 0.3499999999988296 0  1.1 0.3999999999986936 0  1.1 0.4499999999985143 0  1.1 0.4999999999984002 0  1.1 0.5499999999985247 0  1.1 0.5999999999986493 0  1.1 0.6499999999987955 0  1.1 0.6999999999989417 0  1.1 0.7499999999990659 0  1.1 0.7999999999992116 0  1.1 0.8499999999993573 0  1.1 0.8999999999994526 0  1.1 0.949999999999584 0  1.1 0.9999999999997226 0  1.1 1.049999999999861 0  1.05000000000004 1.1 0  1.000000000000079 1.1 0  0.9500000000001624 1.1 0  0.9000000000003032 1.1 0  0.850000000000444 1.1 0  0.8000000000005848 1.1 0  0.7500000000007256 1.1 0  0.7000000000008665 1.1 0  0.6500000000010508 1.1 0  0.6000000000012352 1.1 0  0.5500000000014196 1.1 0  0.500000000001539 1.1 0  0.4500000000014195 1.1 0  0.4000000000013 1.1 0  0.3500000000011588 1.1 0  0.3000000000010178 1.1 0  0.2500000000008986 1.1 0  0.2000000000007579 1.1 0  0.1500000000006174 1.1 0  0.1000000000005272 1.1 0  0.05000000000040083 1.1 0  2.671196597248127e-13 1.1 0  -0.0499999999998666 1.1 0  0.62361546139593 0.6917403085576361 0  0.6542192316231772 0.6786358615104502 0  0.682147181389845 0.6591837122491297 0  0.7046357855703324 0.6334529138890339 0  0.7190079558674322 0.6028067572418984 0  0.7278369662470678 0.5707782024973698 0  0.7321317537960892 0.5383501120397981 0  0.7331414844679934 0.5059809608015022 0  0.7313580450548763 0.473838520527225 0  0.7268337224770766 0.4420720732542675 0  0.7196156774289098 0.4109344502419028 0  0.7097710193896837 0.3806154307824169 0  0.6972762388956177 0.3513692526249594 0  0.6820238413457216 0.3236663082170886 0  0.6634296846538303 0.2982264693525463 0  0.6418210097854196 0.2759775072009211 0  0.6164311017680708 0.258254699569008 0  0.5886646494035157 0.2460175573327943 0  0.5592220878331667 0.2401469832795371 0  0.5299452345457046 0.2393742580564299 0  0.5008497840964741 0.2426037389687415 0  0.4724019657156001 0.2488997873996026 0  0.4446380904074999 0.2578245722109819 0  0.4178260032896313 0.2689711710895554 0  0.3920604636545167 0.2816963511146843 0  0.3668431585566701 0.2956710349911019 0  0.3425398180636158 0.3109416972963393 0  0.3192160289772965 0.3274280994374112 0  0.2968735670783218 0.3450479141782627 0  0.2757351151120032 0.3637298715814731 0  0.2563195452590722 0.3839887706977991 0  0.2383621174482404 0.4052545492874943 0  0.2222929260766715 0.4277803333890151 0  0.2083012493110362 0.4509855154124115 0  0.1979667585573592 0.4754309801237273 0  0.1942306636709965 0.5007366276199622 0  0.1990877870652817 0.5264589512632146 0  0.2116374022901791 0.5506042002846609 0  0.2289477196958176 0.5730648231229981 0  0.2494580187061096 0.5936490048651855 0  0.2720029953045342 0.612517915922035 0  0.2963506889863881 0.6296408293693566 0  0.3221613344196292 0.6451120479626475 0  0.3490487729652145 0.6588736631823862 0  0.3770519301879465 0.6708611246491138 0  0.4059354234314424 0.6811380297294125 0  0.4355890210820173 0.6897239441705395 0  0.4659054107611126 0.6963828571180669 0  0.4968426141208804 0.700946547602477 0  0.5282588771775538 0.7032267763381078 0  0.5599706323626111 0.7028561256296757 0  0.347796886814098 0.6266133266736051 0  0.3252482148712387 0.3588631341799783 0  0.6511098807973192 0.3263738806946062 0  0.3952303648500731 0.3077433500902617 0  0.4953669702374231 0.2711120997612277 0  0.2670340795439184 0.4133946744418449 0  0.6885316100774233 0.40756365494669 0  0.2718390157250274 0.5802677904859105 0  0.5708613186828337 0.2679529503489037 0  0.4286368988261118 0.6569853676571561 0  0.227199310989132 0.4752900023308225 0  0.4867793204654441 0.6714205851359787 0  0.7044340965834003 0.4927888198971385 0  0.7048260167565745 0.5521610632208864 0  0.6739171949885813 0.6298309070591726 0  0.4415559570320583 0.2906390853359401 0  0.2414844213834706 0.5428944764805712 0  0.6030876349402015 0.6634427742146117 0  0.5464749660487797 0.6741033035856057 0  0.6148262227044005 0.2882510469399714 0  0.2141690277589456 0.5112761510969556 0  0.3475272662407992 0.3416114885868823 0  0.3534256736082755 0.373014106676785 0  0.3313198986083878 0.3899682665287857 0  0.3593326214697726 0.4042983538253364 0  0.3825663468609574 0.3864443565633988 0  0.3899702830874857 0.4221900869368965 0  0.4146014827801722 0.4012871809794373 0  0.3591807864383209 0.4404936797435099 0  0.3958226826272322 0.4607228103873463 0  0.3669686425395949 0.4825403668126691 0  0.4010205772855527 0.5015123263300942 0  0.4339827071998228 0.4776246784202781 0  0.4394898375152846 0.5248614529908709 0  0.3703874307949717 0.5228737102695236 0  0.3392383769317739 0.5051637306060155 0  0.342186880813439 0.542771993420214 0  0.3133507073189426 0.5245928579698169 0  0.3095257544048627 0.488844085168787 0  0.370366501631015 0.560359023657496 0  0.2853171268818533 0.5070696358585688 0  0.2816743328289616 0.4741416481654226 0  0.304598478790005 0.4545836926823739 0  0.475742753781436 0.4952844891514108 0  0.3429397412840287 0.5766237808766129 0  0.4081619323947036 0.3677706031176417 0  0.4390072799600382 0.3800861678854866 0  0.4321152770181969 0.3472429280578747 0  0.4635299284421653 0.3570902424821242 0  0.4703575597581531 0.396045645154746 0  0.5016194545500406 0.3642846176208254 0  0.5071106398391756 0.4125775469256948 0  0.5411920089555206 0.383909886136113 0  0.5353033397452406 0.3433401760928196 0  0.5717757787779917 0.3575752003847866 0  0.5824737541019998 0.3986852305579935 0  0.6099191625711389 0.3727729947137142 0  0.6262540682231075 0.4079078787378033 0  0.5977529833449222 0.4409932234977924 0  0.6368947617161129 0.4561202964558522 0  0.6419090763165891 0.3806070936822669 0  0.5615573225381497 0.3218212045552189 0  0.5281053175778728 0.3121089308950725 0  0.4829422648158424 0.3300569429349662 0  0.2587467864533146 0.4911095564059144 0  0.2543826698177001 0.4610798685757954 0  0.2895016698285306 0.5379660984875784 0  0.6059553530754048 0.4946303209286781 0  0.6465258175055458 0.5034595000777539 0  0.6690342325625341 0.4730675286389472 0  0.5998743989971906 0.3338499565037791 0  0.6564742134982577 0.4250361343787933 0  0.3168729340331005 0.562520084970582 0  0.5557930557584947 0.4803695464702705 0  0.3168411574433379 0.5946556420793025 0  0.4753569077225107 0.557851654876222 0  0.4375063441391195 0.5781735271738662 0  0.4813409047311282 0.6024401735085074 0  0.4477508731440288 0.618350548557509 0  0.3668606778223236 0.5989241524591994 0  0.389870914
[...]
<PointData  Scalars="v"> 
<DataArray  type="Float64"  Name="v"  format="ascii">0.0000000000000000e+00  0.0000000000000000e+00  0.0000000000000000e+00  0.0000000000000000e+00  0.0000000000000000e+00  0.0000000000000000e+00  0.0000000000000000e+00  0.0000000000000000e+00  5.9357633948109043e-05  7.0896571616047322e-05  0.0000000000000000e+00  0.0000000000000000e+00  0.0000000000000000e+00  0.0000000000000000e+00  0.0000000000000000e+00  0.0000000000000000e+00  0.0000000000000000e+00  0.0000000000000000e+00  0.0000000000000000e+00  0.0000000000000000e+00  0.0000000000000000e+00  0.0000000000000000e+00  0.0000000000000000e+00  0.0000000000000000e+00  0.0000000000000000e+00  0.0000000000000000e+00  0.0000000000000000e+00  0.0000000000000000e+00  0.0000000000000000e+00  0.0000000000000000e+00  0.0000000000000000e+00  0.0000000000000000e+00  0.0000000000000000e+00  0.0000000000000000e+00  0.0000000000000000e+00  0.0000000000000000e+00  0.0000000000000000e+00  0.0000000000000000e+00  0.0000000000000000e+00  0.0000000000000000e+00  0.0000000000000000e+00  0.0000000000000000e+00  0.0000000000000000e+00  0.0000000000000000e+00  0.0000000000000000e+00  0.0000000000000000e+00  0.0000000000000000e+00  0.0000000000000000e+00  0.0000000000000000e+00  0.0000000000000000e+00  0.0000000000000000e+00  0.0000000000000000e+00  0.0000000000000000e+00  0.0000000000000000e+00  0.0000000000000000e+00  0.0000000000000000e+00  0.0000000000000000e+00  0.0000000000000000e+00  0.0000000000000000e+00  0.0000000000000000e+00  0.0000000000000000e+00  0.0000000000000000e+00  0.0000000000000000e+00  0.0000000000000000e+00  0.0000000000000000e+00  0.0000000000000000e+00  0.0000000000000000e+00  0.0000000000000000e+00  0.0000000000000000e+00  0.0000000000000000e+00  0.0000000000000000e+00  0.0000000000000000e+00  0.0000000000000000e+00  0.0000000000000000e+00  0.0000000000000000e+00  0.0000000000000000e+00  0.0000000000000000e+00  0.0000000000000000e+00  0.0000000000000000e+00  0.0000000000000000e+00  0.0000000000000000e+00  0.0000000000000000e+00  0.0000000000000000e+00  0.0000000000000000e+00  0.0000000000000000e+00  0.0000000000000000e+00  0.0000000000000000e+00  0.0000000000000000e+00  0.0000000000000000e+00  0.0000000000000000e+00  0.0000000000000000e+00  0.0000000000000000e+00  0.0000000000000000e+00  0.0000000000000000e+00  0.0000000000000000e+00  0.0000000000000000e+00  0.0000000000000000e+00  0.0000000000000000e+00  0.0000000000000000e+00  0.0000000000000000e+00  0.0000000000000000e+00  0.0000000000000000e+00  0.0000000000000000e+00  0.0000000000000000e+00  0.0000000000000000e+00  0.0000000000000000e+00  0.0000000000000000e+00  0.0000000000000000e+00  0.0000000000000000e+00  0.0000000000000000e+00  0.0000000000000000e+00  0.0000000000000000e+00  0.0000000000000000e+00  0.0000000000000000e+00  0.0000000000000000e+00  0.0000000000000000e+00  0.0000000000000000e+00  0.0000000000000000e+00  0.0000000000000000e+00  0.0000000000000000e+00  0.0000000000000000e+00  0.0000000000000000e+00  0.0000000000000000e+00  0.0000000000000000e+00  0.0000000000000000e+00  0.0000000000000000e+00  0.0000000000000000e+00  0.0000000000000000e+00  0.0000000000000000e+00  0.0000000000000000e+00  0.0000000000000000e+00  0.0000000000000000e+00  0.0000000000000000e+00  0.0000000000000000e+00  0.0000000000000000e+00  0.0000000000000000e+00  0.0000000000000000e+00  0.0000000000000000e+00  0.0000000000000000e+00  0.0000000000000000e+00  0.0000000000000000e+00  0.0000000000000000e+00  0.0000000000000000e+00  0.0000000000000000e+00  0.0000000000000000e+00  0.0000000000000000e+00  0.0000000000000000e+00  0.0000000000000000e+00  0.0000000000000000e+00  0.0000000000000000e+00  0.0000000000000000e+00  0.0000000000000000e+00  0.0000000000000000e+00  0.0000000000000000e+00  0.0000000000000000e+00  0.0000000000000000e+00  0.0000000000000000e+00  0.0000000000000000e+00  0.0000000000000000e+00  0.0000000000000000e+00  0.0000000000000000e+00  0.0000000000000000e+00  0.0000000000000000e+00  0.0000000000000000e+00  0.0000000000000000e+00  0.0000000000000000e+00  0.0000000000000000e+00  0.0000000000000000e+00  0.0000000000000000e+00  0.0000000000000000e+00  0.0000000000000000e+00  0.0000000000000000e+00  0.0000000000000000e+00  0.0000000000000000e+00  0.0000000000000000e+00  0.0000000000000000e+00  0.0000000000000000e+00  0.0000000000000000e+00  7.0003133454988489e-05  6.8152115218174676e-05  6.6035640760555929e-05  6.3898049199482735e-05  6.2008754831123435e-05  6.0328462954070928e-05  5.8682778076424727e-05  5.7170450989505347e-05  5.5417064877725698e-05  5.3486416488678400e-05  5.1511559755519702e-05  4.9298671756284484e-05  4.7095512698881257e-05  4.4627888611553696e-05  4.2476614682873236e-05  4.0690892105684001e-05  3.9363312634989595e-05  3.8641637170648801e-05  3.8605434273025615e-05  3.8997729968568291e-05  3.9538527839959600e-05  4.0001480222662985e-05  4.0335137334518899e-05  4.0406044771179540e-05  4.0180616585982878e-05  3.9492052534558146e-05  3.8428608887019904e-05  3.7062206864568713e-05  3.5321831069904731e-05  3.3244895335043452e-05  3.1247753026228572e-05  2.9041253340636669e-05  2.6996926521876284e-05  2.4724205942943176e-05  2.2968518231048106e-05  2.3216037094852773e-05  2.5751725911350796e-05  2.9254854093383821e-05  3.4302714950890975e-05  3.9475649556906368e-05  4.4837546187389104e-05  4.9794574979375260e-05  5.4368176854485434e-05  5.8662004731506008e-05  6.2245683274190101e-05  6.5259387507539708e-05  6.7620614127930821e-05  6.9535812091442193e-05  7.0854903486676854e-05  7.1602849432191859e-05  7.1556575624059693e-05  5.2530483073453899e-05  3.9130746036166735e-05  4.5793410414167210e-05  4.1437029885414215e-05  4.2246500754707721e-05  3.5670232739933760e-05  5.0929228997003143e-05  4.2386184917502979e-05  4.2311823633058540e-05  6.0486921052720424e-05  3.2391612200678852e-05  6.3910659656249346e-05  5.5969102199811953e-05  5.8949537160265433e-05  6.2822904415083246e-05  4.2158642814467324e-05  3.6941920422717411e-05  6.4803392277435533e-05  6.5542930929340847e-05  4.3745294158087159e-05  3.1803601683399075e-05  4.0064453625981526e-05  4.0629639023395282e-05  3.9721650016979683e-05  4.1328783781152117e-05  4.2145951067695590e-05  4.3548737429001540e-05  4.4009821049297911e-05  4.2351757457691758e-05  4.5405218375499395e-05  4.4737590458284848e-05  4.7649132109064632e-05  4.8042029426583334e-05  5.1502001711313961e-05  4.7149057584593302e-05  4.3949206664485772e-05  4.6526619152515182e-05  4.2866100386283805e-05  4.0750185153975608e-05  4.9898253647360300e-05  3.9469879836959132e-05  3.7888151349694591e-05  3.9181003075786895e-05  5.0982687891759858e-05  4.8977920247226914e-05  4.2807835734301281e-05  4.4191513517837252e-05  4.3079877445776931e-05  4.4071839493997550e-05  4.5574159347326459e-05  4.5132142264430766e-05  4.7437196219800431e-05  4.6944376023068521e-05  4.4934708303000603e-05  4.6290079404153167e-05  4.8598513626298473e-05  4.7885143538157922e-05  5.0236255252968398e-05  5.1214067938442999e-05  5.2953682482990653e-05  4.8961913765168553e-05  4.4540961514596177e-05  4.3745478025587737e-05  4.3661201782108405e-05  3.6475368679000976e-05  3.4985975128202765e-05  4.1455475284872008e-05  5.4777016428160123e-05  5.6124085998064145e-05  5.4317085289481588e-05  4.5552662309675494e-05  5.1543174009862310e-05  4.5701609942307411e-05  5.2277056625447029e-05  4.8083954888175469e-05  5.6194896962951177e-05  5.5771728176404901e-05  5.9277897471203909e-05  5.8874487532978722e-05  5.2295392220894441e-05  5.2889947294549465e-05  5.5248192882204488e-05  4.3021743155668067e-05  4.4039493705453326e-05  3.8202329597768523e-05  4.3010149182979307e-05  4.1820094201407250e-05  3.9984166297082288e-05  3.7828184563684598e-05  4.1485671701914217e-05  4.2244885918890383e-05  4.7460688085782352e-05  5.1623874516381203e-05  3.8036183025916579e-05  4.6972002950099560e-05  4.8134677751168078e-05  5.5271784222462414e-05  5.7763526811512839e-05  3.6650508786810178e-05  6.2446874329893511e-05  6.1633506340877170e-05  6.1690107583554370e-05  5.9170618809724698e-05  6.1671645125629105e-05  6.2115339735939451e-05  5.9253316511373334e-05  6.1471240350973331e-05  6.3226491234181771e-05  5.8552799905324742e-05  6.0675237293816335e-05  6.3533962879458569e-05  6.2928828663861709e-05  6.3235013891888819e-05  6.4630700066145864e-05  6.4704673117537399e-05  3.6879460734846065e-05  5.3865788405476605e-05  5.2957236410632757e-05  4.2857069573391569e-05  4.3171273424024189e-05  5.7560818571884373e-05  5.7053623708697967e-05  4.0975846740519043e-05  4.2129022453098492e-05  3.3979585658600793e-05  3.9318439485103392e-05  5.7466257345174862e-05  6.0303673134953649e-05  4.9312592827109883e-05  3.3858471252751062e-05  4.1984780776089374e-05  6.4438016033431603e-05  4.4545247292412108e-05  4.1828869227368536e-05  5.4456785411785896e-05  4.9883345739537074e-05  4.5419884598539154e-05  4.2018877001691012e-05  4.5740202052796206e-05  3.2221298445819722e-05  6.4201008023740801e-05  3.8839057589492303e-05  6.3195779275620792e-05  5.2494967159344856e-05  4.5315938479904055e-05  4.2337298016416766e-05  5.0844099918629770e-05  5.0297554531015843e-05  5.7945268498357487e-05  4.3539940500346071e-05  5.8173225717668420e-05  4.4110418976232969e-05  6.1724399186609353e-05  5.4770324899746822e-05  5.7570543074907933e-05  5.9649429482213476e-05  4.9419152653540662e-05  6.1641418926551301e-05  4.5511482276297665e-05  5.9383831259330992e-05  4.0526688551178881e-05  5.0889686524032244e-05  3.3043683430306808e-05  5.4593803655361325e-05  6.3803798779578965e-05  4.2836330933487497e-05  6.0628839274724272e-05  4.1538243988949122e-05  5.7515279278242582e-05  5.1607430735305973e-05  4.0090898979927708e-05  6.2054743192899351e-05  4.4568578057098503e-05  3.0371568080531357e-05  7.1168050823329032e-05  5.5513967364433297e-05  7.2194309238531029e-05  8.1668803177077816e-05  4.0052559759015983e-05  6.3947884481399189e-05  7.9286932861651383e-05  3.4753927977953138e-05  4.9745362175228460e-05  3.1995238399073487e-05  5.8343764967261621e-05  3.0709006619176893e-06  3.4823165100142150e-06  8.0019812440439177e-06  1.7129199970679290e-07  3.7377738168724420e-05  1.1655365756474076e-05  3.2556070556391700e-05  7.4071903135410430e-06  1.8638471179059426e-05  2.2935671136959709e-06  1.6224962454048468e-06  2.1744887665559212e-05  6.0490012814453859e-06  3.7301759108351361e-05  8.6808943531335656e-07  1.4690653032645009e-06  3.3332685901056328e-05  -2.2138430852453065e-06  3.4761305097909063e-05  1.5486136871789165e-05  5.4642090572220869e-05  4.0402763516616288e-06  2.6658763926810929e-06  1.8526847936516784e-06  1.0143871365850246e-05  4.3202834409173723e-06  -2.9151782670623945e-08  4.7561712003439649e-06  -3.7808691942897195e-06  1.6842785369116874e-06  2.4778303094512686e-06  8.6375240890755438e-06  2.9477686449052420e-06  -1.0476662422624242e-06  -2.8690010118987485e-06  -2.1856345877131957e-07  3.5559184329899347e-06  -4.8395694606438882e-06  -1.6285029235145237e-07  7.9053856837665195e-06  1.3987173354918769e-07  9.5373233856352791e-07  -6.4036913873972616e-07  -5.3700833030341445e-06  9.3060644602404135e-07  -4.9584248540725166e-06  -7.7691806596216359e-07  -6.9032210797943553e-06  6.6336442275602612e-05  6.4849259235486717e-05  6.8153147565752013e-05  6.4402312036631720e-05  6.7389717732633094e-05  6.2109871793333132e-05  5.9118918375646871e-05  6.5418476922411749e-05  5.5613260557657770e-05  5.1895020680173249e-05  4.7607167960077392e-05  4.3438902325184047e-05  3.8479411328120445e-05  4.2544277272485257e-05  4.8449481733506929e-05  3.8890585707806835e-05  4.2601438181372799e-05  3.3484834336014570e-05  3.7603781025582396e-05  3.3099745420373189e-05  3.6632177214974653e-05  2.8200491457877155e-05  3.2047069395730420e-05  2.3005770569632111e-05  2.6429342207554364e-05  2.9531367561553153e-05  7.1031158661834137e-05  6.8194892633705373e-05  7.5830512999288432e-05  6.9633242250091639e-05  7.7376365602360790e-05  6.8967607182052689e-05  7.6503604645188094e-05  6.5570377566533090e-05  5.8346971828481458e-05  7.2239409678933800e-05  5.3210265805619886e-05  4.6670583825876545e-05  8.3476980372654733e-05  7.7922239903963127e-05  8.9046326086289997e-05  8.2129812229620705e-05  9.2955850428420197e-05  8.4333844857950452e-05  9.4543678237938433e-05  8.4490206103961262e-05  9.3929046253735571e-05  8.2567596196565489e-05  9.0800671752912340e-05  7.8310177429166304e-05  8.4385742231603015e-05  7.1543514467404255e-05  7.5584192905019012e-05  6.2794950877219312e-05  6.4421060573833193e-05  5.2545122597595174e-05  5.2085061093138768e-05  4.1815543591239918e-05  6.1751282302991014e-05  4.8268555373232279e-05  6.8551592731983600e-05  7.1822105499134606e-05  4.9885247400531831e-05  5.5236672454138981e-05  4.1445678211094788e-05  3.5560265673047037e-05  6.9039353999885802e-05  6.8719068566968147e-05  3.5288386214234786e-05  2.9120901790691640e-05  2.1023031708467705e-05  2.2884858990185324e-05  1.5575182528068410e-05  1.6584908262933717e-05  2.3712510835576170e-05  1.6850174402220675e-05  2.3313058411550406e-05  1.6237900555600954e-05  1.0956448369585422e-05  1.0297452479763732e-05  1.4765358337079351e-05  6.3338019352926009e-06  9.1144428688446439e-06  1.2684502430190608e-05  1.0498967728060053e-05  4.0631052797563899e-05  3.5211078750927544e-05  6.2122036582999744e-05  3.9785397496778209e-05  2.9520985180208878e-05  9.3682973750017375e-05  2.8828608601585648e-05  2.7395423794135389e-05  3.0156821673001957e-05  3.2315457091649312e-05  3.7587715376817826e-05  8.2933135806606819e-05  9.9576521093646257e-05  7.6499185492965992e-06  1.0625884191309817e-05  4.9030647308560931e-06  2.3796081535054306e-05  1.6223298508126644e-05  1.3659897754784965e-05  8.6676043825726263e-06  1.1249703003455532e-05  6.2627231440932061e-05  4.5667239848699165e-05  3.2414956572845719e-05  1.9470861855518232e-05  4.3899656931719276e-05  1.4974493136265617e-05  2.0766367334353969e-05  2.2127282908326797e-05  6.1217773067391034e-05  7.2854624186650585e-05  2.1499791521011906e-05  2.3452933225920923e-05  2.4259249071033559e-05  6.7131080792464869e-06  9.0763996969584370e-06  1.4091662193075392e-05  1.1763224103758505e-05  4.7299433196372066e-05  3.4343010243811096e-05  3.9471580570168934e-05  3.1036340326446311e-05  2.9723045329268896e-05  9.1185419426253049e-05  4.5230342189802128e-05  3.5902694788879624e-05  2.4661242363154356e-05  2.0354040271268750e-05  1.2500748471093706e-05  1.3026053361244045e-05  5.3356276469412060e-06  3.7365994412703832e-05  3.5612145097999178e-05  2.7810315079445536e-05  1.9940630575800443e-05  1.1978866167717731e-05  8.0869524826589876e-05  8.1263882499223218e-05  1.5685689492478164e-05  1.6925997672100707e-05  4.0633614276032584e-06  2.1619310267499305e-06  9.3542821633821289e-06  5.7866631407275714e-06  1.7012412037354630e-05  1.4618281633954454e-05  9.5414580056210683e-06  1.1513249416549734e-05  1.7106264563046426e-05  1.3663966394966769e-05  1.9687692740817360e-05  1.5780476773644088e-05  2.1827479704615104e-05  1.7285645929547820e-05  2.3847504152321700e-05  1.8126626148136455e-05  2.3128630544272238e-05  1.7361755473907372e-05  2.1031658382805199e-05  1.4866405658820135e-05  1.8218112355366653e-05  1.1364272496675608e-05  1.2581904335634672e-05  7.0635048584250317e-06  7.0313162918049894e-06  2.7646491157067539e-06  1.8183395081732468e-06  1.2199684889137704e-05  3.2703262246256127e-06  6.6591433015298680e-06  4.5449510053263805e-07  2.1764834345120325e-07  -2.2255225348136322e-06  -3.6383389160398034e-06  -6.6403523089790852e-07  1.8128930564993558e-05  -5.1427824131054249e-06  8.8359166897129570e-07  -2.5937926228873553e-06  -6.6785535591815265e-06  3.2874782833712083e-06  1.2507562266891896e-05  -9.6939755383995525e-07  1.0872300448841782e-05  2.0259435931314627e-05  2.2713868184010249e-05  6.4582117068293869e-06  3.1436775680388123e-06  -1.9186302731311840e-06  3.2175276770405540e-05  2.6091571011354766e-06  2.9110493235025269e-05  1.9369455186533906e-05  2.2209206981003307e-05  2.9624315915203153e-05  4.9806661981805984e-06  3.4090836115292068e-06  7.7816403563851080e-07  -2.2668414852240672e-07  2.4008705854292150e-06  -3.4953512608728004e-06  3.1929648255994587e-06  8.7285341381360154e-07  -9.3074317797419662e-08  5.0472283667182592e-05  1.1897954023318464e-05  1.6182449219217846e-05  1.4013516507306075e-05  7.1890718166223787e-05  2.0560358782216837e-05  8.9750395508424761e-06  1.2215836576255766e-05  -4.5371368422702380e-06  4.2153540446774242e-05  4.3989131970958848e-05  3.9930916184357261e-05  8.6394373653919651e-06  1.1200228499244086e-06  3.3265390531826781e-05  1.0584026024209720e-05  1.1277207057338694e-05  -3.2005822061978406e-06  -7.4969707543683229e-06  -7.7205339206433091e-06  3.0956440984530230e-06  2.2909424569307747e-05  2.8087174027932602e-05  2.4049999577416718e-05  3.0450020588656564e-05  1.7015847179608904e-05  1.0728396816537567e-05  7.6397533854522445e-05  8.6246997226796637e-05  -7.5358838498830499e-06  1.5655839831958248e-05  1.2659003999822922e-05  5.0359150195039596e-05  1.2929747101571048e-06  -4.6030879943792646e-08  2.3152403925254438e-05  7.4519677606797017e-05  7.5943273332851905e-05  8.0430408132982109e-05  6.1299049433883970e-06  6.1731248820015904e-06  5.0062467727021274e-05  3.8221030799534580e-05  4.7190448049068406e-06  1.1222073911016175e-05  1.4610310992934166e-05  1.5608591907191748e-05  2.2837832517348243e-05  1.4822336221625700e-05  2.0770469135251448e-05  9.5089266249760307e-06  1.1925256839404203e-05  2.6318578654399158e-05  2.7826893820701736e-05  7.9069238993500959e-05  8.5751265197277752e-05  -2.8594655671297144e-07  3.6017148341673564e-05  1.1059158242808951e-05  1.4200965437872529e-05  3.5951354949643541e-06  6.7473824596461259e-05  3.2871649789145577e-05  2.8815243732880017e-05  2.5824419820243668e-05  4.9200866583619469e-05  5.4185409103462590e-05  4.2435147645184872e-05  2.3765016064027635e-05  2.5549225529994527e-05  3.4191413765073397e-05  6.9799630322530966e-06  1.2013312329045922e-05  1.0401399127091247e-05  4.6118911830405888e-07  5.8887495570794264e-06  5.0687952242886613e-06  -9.0665815113799825e-07  1.6843652693998993e-06  -4.6295851117281226e-06  3.3029588017883468e-05  -1.8458527021590655e-06  -1.1338007739011446e-06  -6.8019742319361377e-07  5.3717891255608236e-05  5.3981439286839371e-05  5.7465150037597065e-05  5.8269667677381787e-05  6.0222022366303166e-05  6.2244632600447424e-06  1.3191496806513235e-05  1.4674609583812873e-05  2.0931152787736605e-05  2.0424790274890449e-05  2.3425174572310130e-05  3.9451586149635311e-05  4.1513542461489574e-05  4.3080446296839804e-05  4.8219112262501297e-05  5.2321104018751961e-05  7.9175868611633104e-06  4.6954006297402566e-05  7.2066908978912536e-05  3.5820709026491821e-05  4.7196463771921745e-05  1.7370414676397805e-05  8.0430052460044488e-05  8.7828427457186468e-05  8.9766606527555117e-05  9.5343648893143996e-05  9.2880869807078161e-05  9.7474689368719588e-05  9.7022566576002349e-05  9.1309222239890258e-05  9.8890547433225877e-05  9.2712907284596549e-05  9.9762742993465551e-05  9.3575143652868895e-05  9.8293406453743833e-05  9.1433981063437550e-05  8.4942049243542188e-05  1.0184066710097254e-04  1.3634793028744963e-06  6.3032403527978910e-05  2.0033652306885942e-05  -2.9925629840353784e-06  3.7868073490103553e-05  3.6314630181162851e-06  2.8010959599762672e-05  3.3190565700050801e-05  2.5290480295760561e-05  2.7819894293282584e-05  3.1099995495550151e-05  4.4651431110191040e-06  2.5517590838290464e-06  -3.7829697477697933e-07  -1.0683403334172974e-07  5.2320880861661106e-05  1.9064338854663888e-05  4.0441228746792752e-06  2.7655766297543820e-06  9.4424326376545706e-05  -5.3282295807591061e-06  5.6623661748260135e-05  1.0035251048072600e-04  1.3794128159121763e-05  5.3931929096072556e-06  -1.5151513176325371e-06  2.4722582717817292e-05  -2.7251949019542443e-07  4.1534427116883466e-05  8.1105255699801017e-05  7.4539068572629141e-05  8.6441536417299625e-05  8.4746882043134960e-05  8.8932741954979099e-05  8.3847019283828713e-06  2.42254