<?xml version="1.0"?>
<VTKFile type="UnstructuredGrid"  version="0.1"  >
<UnstructuredGrid>
<Piece  NumberOfPoints="1191" NumberOfCells="2284">
<Points>
<DataArray  type="Float64"  NumberOfComponents="3"  format="ascii">0 0 0  0 1 0  1 1 0  1 0 0  1.1 -0.1 0  -0.1 -0.1 0  1.1 1.1 0  -0.1 1.1 0  0.5 0.5 0  0.5291554014204041 0.6056907682701403 0  0 0.9499999999997918 0  0 0.8999999999995836 0  0 0.8499999999996529 0  0 0.7999999999999998 0  0 0.7500000000003466 0  0 0.7000000000006934 0  0 0.6500000000010401 0  0 0.6000000000013869 0  0 0.5500000000017335 0  0 0.5000000000020587 0  0 0.4500000000018723 0  0 0.4000000000016644 0  0 0.3500000000014564 0  0 0.3000000000012483 0  0 0.2500000000010403 0  0 0.2000000000008322 0  0 0.1500000000006241 0  0 0.100000000000416 0  0 0.05000000000020799 0  0.04999999999989965 0 0  0.09999999999981467 0 0  0.1499999999997036 0 0  0.1999999999995579 0 0  0.2499999999994121 0 0  0.2999999999992664 0 0  0.3499999999991206 0 0  0.3999999999989749 0 0  0.4499999999988292 0 0  0.4999999999986943 0 0  0.5499999999988151 0 0  0.5999999999989468 0 0  0.6499999999990784 0 0  0.69999999999921 0 0  0.7499999999993417 0 0  0.7999999999994734 0 0  0.8499999999996051 0 0  0.8999999999997368 0 0  0.9499999999998684 0 0  1 0.04999999999989965 0  1 0.09999999999981467 0  1 0.1499999999997036 0  1 0.1999999999995579 0  1 0.2499999999994121 0  1 0.2999999999992664 0  1 0.3499999999991206 0  1 0.3999999999989749 0  1 0.4499999999988292 0  1 0.4999999999986943 0  1 0.5499999999988151 0  1 0.5999999999989468 0  1 0.6499999999990784 0  1 0.69999999999921 0  1 0.7499999999993417 0  1 0.7999999999994734 0  1 0.8499999999996051 0  1 0.8999999999997368 0  1 0.9499999999998684 0  0.9499999999997918 1 0  0.8999999999995836 1 0  0.8499999999996529 1 0  0.7999999999999998 1 0  0.7500000000003466 1 0  0.7000000000006934 1 0  0.6500000000010401 1 0  0.6000000000013869 1 0  0.5500000000017335 1 0  0.5000000000020587 1 0  0.4500000000018723 1 0  0.4000000000016644 1 0  0.3500000000014564 1 0  0.3000000000012483 1 0  0.2500000000010403 1 0  0.2000000000008322 1 0  0.1500000000006241 1 0  0.100000000000416 1 0  0.05000000000020799 1 0  -0.1 1.05000000000004 0  -0.1 1.000000000000079 0  -0.1 0.9500000000001624 0  -0.1 0.9000000000003032 0  -0.1 0.850000000000444 0  -0.1 0.8000000000005848 0  -0.1 0.7500000000007256 0  -0.1 0.7000000000008665 0  -0.1 0.6500000000010508 0  -0.1 0.6000000000012352 0  -0.1 0.5500000000014196 0  -0.1 0.500000000001539 0  -0.1 0.4500000000014195 0  -0.1 0.4000000000013 0  -0.1 0.3500000000011588 0  -0.1 0.3000000000010178 0  -0.1 0.2500000000008986 0  -0.1 0.2000000000007579 0  -0.1 0.1500000000006174 0  -0.1 0.1000000000005272 0  -0.1 0.05000000000040083 0  -0.1 2.671196597248127e-13 0  -0.1 -0.0499999999998666 0  -0.0500000000000906 -0.1 0  -1.730560139634463e-13 -0.1 0  0.04999999999975802 -0.1 0  0.09999999999961506 -0.1 0  0.1499999999994613 -0.1 0  0.199999999999302 -0.1 0  0.2499999999991446 -0.1 0  0.2999999999990088 -0.1 0  0.3499999999988296 -0.1 0  0.3999999999986936 -0.1 0  0.4499999999985143 -0.1 0  0.4999999999984002 -0.1 0  0.5499999999985247 -0.1 0  0.5999999999986493 -0.1 0  0.6499999999987955 -0.1 0  0.6999999999989417 -0.1 0  0.7499999999990659 -0.1 0  0.7999999999992116 -0.1 0  0.8499999999993573 -0.1 0  0.8999999999994526 -0.1 0  0.949999999999584 -0.1 0  0.9999999999997226 -0.1 0  1.049999999999861 -0.1 0  1.1 -0.0500000000000906 0  1.1 -1.730560139634463e-13 0  1.1 0.04999999999975802 0  1.1 0.09999999999961506 0  1.1 0.1499999999994613 0  1.1 0.199999999999302 0  1.1 0.2499999999991446 0  1.1 0.2999999999990088 0  1.1 0.3499999999988296 0  1.1 0.3999999999986936 0  1.1 0.4499999999985143 0  1.1 0.4999999999984002 0  1.1 0.5499999999985247 0  1.1 0.5999999999986493 0  1.1 0.6499999999987955 0  1.1 0.6999999999989417 0  1.1 0.7499999999990659 0  1.1 0.7999999999992116 0  1.1 0.8499999999993573 0  1.1 0.8999999999994526 0  1.1 0.949999999999584 0  1.1 0.9999999999997226 0  1.1 1.049999999999861 0  1.05000000000004 1.1 0  1.000000000000079 1.1 0  0.9500000000001624 1.1 0  0.9000000000003032 1.1 0  0.850000000000444 1.1 0  0.8000000000005848 1.1 0  0.7500000000007256 1.1 0  0.7000000000008665 1.1 0  0.6500000000010508 1.1 0  0.6000000000012352 1.1 0  0.5500000000014196 1.1 0  0.500000000001539 1.1 0  0.4500000000014195 1.1 0  0.4000000000013 1.1 0  0.3500000000011588 1.1 0  0.3000000000010178 1.1 0  0.2500000000008986 1.1 0  0.2000000000007579 1.1 0  0.1500000000006174 1.1 0  0.1000000000005272 1.1 0  0.05000000000040083 1.1 0  2.671196597248127e-13 1.1 0  -0.0499999999998666 1.1 0  0.5534745790298849 0.6015632454767832 0  0.5765917934685676 0.5931434364841244 0  0.5975755626664012 0.5802231516687345 0  0.6144845859303762 0.5624496344055098 0  0.6237347916478349 0.53965729515394 0  0.6294510286381529 0.5156581055579668 0  0.6321477679829995 0.4911493916394147 0  0.6330078187080929 0.4664910505774604 0  0.6323171287515168 0.4418307748531006 0  0.6299267917488265 0.4172766859684659 0  0.6257918897858376 0.3929561220444252 0  0.6199531493794654 0.3689871462687826 0  0.6121915679964628 0.3455725152632536 0  0.6025353258949679 0.3228763416565124 0  0.5903329826367943 0.3014422818429122 0  0.5755157900968779 0.2817565909680275 0  0.5566797152906237 0.2658887327373759 0  0.5348431101089474 0.2545464041793657 0  0.5106082942583741 0.2503704733329524 0  0.4859539487222785 0.2507033229527411 0  0.4616240655442038 0.2547335086074177 0  0.4376997225801811 0.2607377512706672 0  0.4143472337237982 0.268692283417846 0  0.3916385882868739 0.2783343983981907 0  0.3694676713930733 0.2891584951173448 0  0.3478415948366308 0.3010365259124484 0  0.3267460447491796 0.3138332383196363 0  0.3061093035844564 0.32735823466638 0  0.2860294455167345 0.3416955496044591 0  0.2666123162832337 0.356917894295585 0  0.2479624739119645 0.373070990777413 0  0.2302028749890604 0.3901973351204577 0  0.2135577441105806 0.4084026846624153 0  0.1985243280194916 0.4279569836704216 0  0.1859337142594126 0.4491648273741306 0  0.1802784198614664 0.4728742550436233 0  0.1867602281714572 0.4964146856126193 0  0.203501609618832 0.5144130086986355 0  0.2229815826410746 0.5295224690580578 0  0.2439255049923061 0.5425607269069582 0  0.2657442471965417 0.5540754514098266 0  0.2882186036186586 0.5642524995529703 0  0.3111910938081549 0.5732536745088069 0  0.334555678496599 0.5811816857269663 0  0.3582442943271759 0.5880819455505188 0  0.3822072872803925 0.5939593463346835 0  0.4063953766127545 0.5988285538236606 0  0.4307543198035543 0.6027570035839419 0  0.4552659451692915 0.6055686288761993 0  0.4798852733792006 0.6071763216942696 0  0.5045576898662893 0.6074054403300954 0  0.3297392432289446 0.5569833622404373 0  0.308410127128032 0.3519750797196875 0  0.5778811819445376 0.3227214609035921 0  0.3703849869631544 0.3095077351291941 0  0.4554832389508949 0.2773469769107126 0  0.2539570262099739 0.3967073027748466 0  0.6018188111819939 0.3883418954368616 0  0.2606704993025498 0.5290421622863345 0  0.5182552316696223 0.2727673032067506 0  0.3979467215577226 0.5748539429059331 0  0.2129441074469147 0.448807093662528 0  0.4452522881907129 0.5839194200278072 0  0.6113060484881805 0.4547590677638139 0  0.6115736880542375 0.5002425655514989 0  0.5902396358900728 0.5577092638421055 0  0.4097847661707118 0.2945242290318218 0  0.2287194520656003 0.503233959134074 0  0.5362440168521682 0.5795534049807697 0  0.4924198326383432 0.5859316456542285 0  0.5523620222790926 0.2901277763708832 0  0.200006289443241 0.4805482911755489 0  0.3284022015553305 0.3377361209847989 0  0.3309428802143592 0.3621340851807512 0  0.311027899807889 0.3762386322701264 0  0.3338479056089903 0.3863097012135108 0  0.3545735528766099 0.3714781367425301 0  0.3589388496681598 0.3988808578343213 0  0.3806973530777324 0.3817510993840613 0  0.3319032842954457 0.4143906696548311 0  0.3626730759433705 0.4282653608037206 0  0.3376576482902265 0.4463439206545615 0  0.3668445772921041 0.4591569943884954 0  0.394686541905803 0.4396896408488378 0  0.3995790084611293 0.4753705628285457 0  0.341136583908577 0.4769026433232826 0  0.3137391140982004 0.4652426565991055 0  0.3176824792974196 0.4937688837486452 0  0.2916024212979879 0.4819338997454634 0  0.287432789089916 0.4545528119665919 0  0.3427288936876356 0.5053328534478827 0  0.2659929892187617 0.4704784123767857 0  0.2627385562413475 0.4447938909462391 0  0.2838523634734416 0.4280914794062702 0  0.4293546362090102 0.452009570120835 0  0.3207174749754383 0.5194721447240838 0  0.3771692748105192 0.3559665311680759 0  0.4021938836908255 0.3644402414280415 0  0.3983662423857056 0.3391044880061856 0  0.4238179992107796 0.3457574435454243 0  0.4273990850894946 0.3758746813931446 0  0.4548076506010872 0.3504120556113168 0  0.4569098418024197 0.3879635878198851 0  0.4860351380821433 0.3653194362977518 0  0.4836164658188589 0.3334449426635653 0  0.5122694247997093 0.3446805363610755 0  0.5185461291320584 0.3771858522010342 0  0.5418595307774421 0.3574629485938441 0  0.5529532248624722 0.3855289294778915 0  0.5290366142916336 0.4104509088449591 0  0.5596269978699846 0.4233213342363391 0  0.56676102867052 0.3648650956414226 0  0.5064449028031034 0.3162021776692638 0  0.4798400680363194 0.3087836400536407 0  0.4415009119502006 0.3240674892426233 0  0.2415913598896368 0.4598770472744975 0  0.2387600606545749 0.4357306790949633 0  0.2713548971521285 0.4942238542383864 0  0.534544588204303 0.4519889508119258 0  0.5664178612757067 0.4601477384040651 0  0.5843140889007417 0.4378083112801909 0  0.5364744580325611 0.3262833791855317 0  0.5759870658173166 0.4001510913451176 0  0.2972447822028176 0.5107808769179794 0  0.494624235424459 0.4401511183196129 0  0.3004883196046196 0.5353522479237631 0  0.4300093363970543 0.4993459937523216 0  0.3996667099572846 0.5156207267445335 0  0.4366484260567619 0.5327338827970375 0  0.4104135939860194 0.5453745253850808 0  0.3426455541704893 0.5346895312461384 0  0.3604770085016043 0.5201215593175998 0
[...]
<PointData  Scalars="v"> 
<DataArray  type="Float64"  Name="v"  format="ascii">0.0000000000000000e+00  0.0000000000000000e+00  0.0000000000000000e+00  0.0000000000000000e+00  0.0000000000000000e+00  0.0000000000000000e+00  0.0000000000000000e+00  0.0000000000000000e+00  1.0491300292430987e-03  1.0810176397072315e-03  0.0000000000000000e+00  0.0000000000000000e+00  0.0000000000000000e+00  0.0000000000000000e+00  0.0000000000000000e+00  0.0000000000000000e+00  0.0000000000000000e+00  0.0000000000000000e+00  0.0000000000000000e+00  0.0000000000000000e+00  0.0000000000000000e+00  0.0000000000000000e+00  0.0000000000000000e+00  0.0000000000000000e+00  0.0000000000000000e+00  0.0000000000000000e+00  0.0000000000000000e+00  0.0000000000000000e+00  0.0000000000000000e+00  0.0000000000000000e+00  0.0000000000000000e+00  0.0000000000000000e+00  0.0000000000000000e+00  0.0000000000000000e+00  0.0000000000000000e+00  0.0000000000000000e+00  0.0000000000000000e+00  0.0000000000000000e+00  0.0000000000000000e+00  0.0000000000000000e+00  0.0000000000000000e+00  0.0000000000000000e+00  0.0000000000000000e+00  0.0000000000000000e+00  0.0000000000000000e+00  0.0000000000000000e+00  0.0000000000000000e+00  0.0000000000000000e+00  0.0000000000000000e+00  0.0000000000000000e+00  0.0000000000000000e+00  0.0000000000000000e+00  0.0000000000000000e+00  0.0000000000000000e+00  0.0000000000000000e+00  0.0000000000000000e+00  0.0000000000000000e+00  0.0000000000000000e+00  0.0000000000000000e+00  0.0000000000000000e+00  0.0000000000000000e+00  0.0000000000000000e+00  0.0000000000000000e+00  0.0000000000000000e+00  0.0000000000000000e+00  0.0000000000000000e+00  0.0000000000000000e+00  0.0000000000000000e+00  0.0000000000000000e+00  0.0000000000000000e+00  0.0000000000000000e+00  0.0000000000000000e+00  0.0000000000000000e+00  0.0000000000000000e+00  0.0000000000000000e+00  0.0000000000000000e+00  0.0000000000000000e+00  0.0000000000000000e+00  0.0000000000000000e+00  0.0000000000000000e+00  0.0000000000000000e+00  0.0000000000000000e+00  0.0000000000000000e+00  0.0000000000000000e+00  0.0000000000000000e+00  0.0000000000000000e+00  0.0000000000000000e+00  0.0000000000000000e+00  0.0000000000000000e+00  0.0000000000000000e+00  0.0000000000000000e+00  0.0000000000000000e+00  0.0000000000000000e+00  0.0000000000000000e+00  0.0000000000000000e+00  0.0000000000000000e+00  0.0000000000000000e+00  0.0000000000000000e+00  0.0000000000000000e+00  0.0000000000000000e+00  0.0000000000000000e+00  0.0000000000000000e+00  0.0000000000000000e+00  0.0000000000000000e+00  0.0000000000000000e+00  0.0000000000000000e+00  0.0000000000000000e+00  0.0000000000000000e+00  0.0000000000000000e+00  0.0000000000000000e+00  0.0000000000000000e+00  0.0000000000000000e+00  0.0000000000000000e+00  0.0000000000000000e+00  0.0000000000000000e+00  0.0000000000000000e+00  0.0000000000000000e+00  0.0000000000000000e+00  0.0000000000000000e+00  0.0000000000000000e+00  0.0000000000000000e+00  0.0000000000000000e+00  0.0000000000000000e+00  0.0000000000000000e+00  0.0000000000000000e+00  0.0000000000000000e+00  0.0000000000000000e+00  0.0000000000000000e+00  0.0000000000000000e+00  0.0000000000000000e+00  0.0000000000000000e+00  0.0000000000000000e+00  0.0000000000000000e+00  0.0000000000000000e+00  0.0000000000000000e+00  0.0000000000000000e+00  0.0000000000000000e+00  0.0000000000000000e+00  0.0000000000000000e+00  0.0000000000000000e+00  0.0000000000000000e+00  0.0000000000000000e+00  0.0000000000000000e+00  0.0000000000000000e+00  0.0000000000000000e+00  0.0000000000000000e+00  0.0000000000000000e+00  0.0000000000000000e+00  0.0000000000000000e+00  0.0000000000000000e+00  0.0000000000000000e+00  0.0000000000000000e+00  0.0000000000000000e+00  0.0000000000000000e+00  0.0000000000000000e+00  0.0000000000000000e+00  0.0000000000000000e+00  0.0000000000000000e+00  0.0000000000000000e+00  0.0000000000000000e+00  0.0000000000000000e+00  0.0000000000000000e+00  0.0000000000000000e+00  0.0000000000000000e+00  0.0000000000000000e+00  0.0000000000000000e+00  0.0000000000000000e+00  0.0000000000000000e+00  0.0000000000000000e+00  0.0000000000000000e+00  0.0000000000000000e+00  0.0000000000000000e+00  0.0000000000000000e+00  0.0000000000000000e+00  0.0000000000000000e+00  0.0000000000000000e+00  0.0000000000000000e+00  0.0000000000000000e+00  1.0863930853771452e-03  1.0884747901421757e-03  1.0893168283986363e-03  1.0875334724207864e-03  1.0823746054227021e-03  1.0766943875841566e-03  1.0703345978306175e-03  1.0638423869577301e-03  1.0561939258528319e-03  1.0476488957145637e-03  1.0389290806108748e-03  1.0286449988088423e-03  1.0182120226993161e-03  1.0058698971512632e-03  9.9364665192121183e-04  9.8067844490486969e-04  9.6914034534180350e-04  9.5854019177108883e-04  9.5429386817492902e-04  9.5304204023091807e-04  9.5322443717209650e-04  9.5259606757598430e-04  9.5235684338504769e-04  9.5170596347915698e-04  9.5015963767835978e-04  9.4643097285726150e-04  9.4106299622255562e-04  9.3455256617167297e-04  9.2663990159122067e-04  9.1743168032147029e-04  9.0708675330699521e-04  8.9518785997828149e-04  8.8195670813163366e-04  8.6469592888529883e-04  8.4566445780037485e-04  8.3765338564479480e-04  8.5226614945632000e-04  8.7923827667609074e-04  9.0575224992663344e-04  9.2861553615126459e-04  9.4981319878423005e-04  9.6887892876549924e-04  9.8559112597508373e-04  1.0019275390794815e-03  1.0163120860954473e-03  1.0296897125099296e-03  1.0412554219542741e-03  1.0519323345090090e-03  1.0612109521899191e-03  1.0692747319949998e-03  1.0758017428801612e-03  9.9134359304514186e-04  9.5284887998790119e-04  1.0065453943332481e-03  9.6697112655613196e-04  9.7678273677388890e-04  9.3045238727332248e-04  1.0325674323060068e-03  9.4700814286052804e-04  9.8210466625554740e-04  1.0277197423203333e-03  9.0498332360466741e-04  1.0464322893462324e-03  1.0538493142646654e-03  1.0644061772336552e-03  1.0730021025104361e-03  9.7353707565095405e-04  9.2240050743470209e-04  1.0680319352794209e-03  1.0606547122084008e-03  9.9335635649835442e-04  8.9498280469923986e-04  9.5853924034121568e-04  9.6238978539758672e-04  9.5612243408218546e-04  9.6570842051382235e-04  9.7186506154281200e-04  9.7776114719244265e-04  9.8276958019912798e-04  9.6854183828104696e-04  9.8426335532668429e-04  9.7642246777516529e-04  9.9081188756922978e-04  9.9808099416393318e-04  1.0082112395129125e-03  9.8288325263993104e-04  9.6768068032177402e-04  9.7489721241538971e-04  9.5803374647296239e-04  9.5210806108098447e-04  9.8967689309202621e-04  9.4214161823968391e-04  9.3777905055483855e-04  9.4808038969624903e-04  1.0135860466240535e-03  9.8125646878386699e-04  9.7715481107763782e-04  9.8586164581710876e-04  9.7995580181354331e-04  9.8717036069308271e-04  9.9453301191796805e-04  9.9512647637672782e-04  1.0061879767892853e-03  1.0067159118237197e-03  9.9614403092022083e-04  1.0053272389278698e-03  1.0169879833261191e-03  1.0152747579964484e-03  1.0266412468923284e-03  1.0292821089451646e-03  1.0381812465509364e-03  1.0216703202870299e-03  9.9570850055982589e-04  9.8891160949086672e-04  9.8609022217464198e-04  9.2700060743972643e-04  9.2225885617587837e-04  9.4799615824215288e-04  1.0431660371761427e-03  1.0501021026242273e-03  1.0452802076825992e-03  1.0032950761812193e-03  1.0336008292643418e-03  9.6656594887648754e-04  1.0289847657825918e-03  9.7364410477277104e-04  1.0259418910922868e-03  1.0177209487550513e-03  1.0339189909620500e-03  1.0265975405429400e-03  9.9482282317813029e-04  1.0013130620746533e-03  1.0082366944652752e-03  9.8053288390492657e-04  9.9405952710010666e-04  9.3243275649357814e-04  9.8505608691040964e-04  9.6146770240431812e-04  9.5527704094901863e-04  9.4281275236258023e-04  9.6826682020062862e-04  9.7369395014528545e-04  1.0013246277978001e-03  1.0008722222047989e-03  9.4593595552410067e-04  1.0117377720930522e-03  1.0186653248468801e-03  1.0038654801576264e-03  1.0160733179080898e-03  9.3396207685903063e-04  1.0373605303793333e-03  1.0388924626075918e-03  1.0447404559532781e-03  1.0399618543238461e-03  1.0500894773641857e-03  1.0591680883120127e-03  1.0562523993666566e-03  1.0639737135158635e-03  1.0581102973281011e-03  1.0588845204300792e-03  1.0662743783773786e-03  1.0666581686622734e-03  1.0694529053420698e-03  1.0523923388537101e-03  1.0636111370650539e-03  1.0531877959740399e-03  9.3858132023481996e-04  1.0456454240878358e-03  1.0408938329959541e-03  9.7995552230214448e-04  9.8378118946933907e-04  1.0597566889527540e-03  1.0555316666695594e-03  9.6430680038073603e-04  9.7755348587149986e-04  9.1928570240439132e-04  9.3261037333877412e-04  1.0188097800169090e-03  1.0682550587093745e-03  1.0174884328712247e-03  9.0911250578106623e-04  9.7242443461139608e-04  1.0718094274461516e-03  9.9907800791302357e-04  9.7681734685559529e-04  1.0288538073779890e-03  1.0153809762126990e-03  1.0033950913148372e-03  9.7202858840027230e-04  9.8988324596486522e-04  9.0733214943667143e-04  1.0748843359291967e-03  9.5007270338054505e-04  1.0476499979908864e-03  1.0401100724833116e-03  9.5935831700651706e-04  9.8398065430050849e-04  9.8240758004257693e-04  1.0287013291048271e-03  1.0554444035741429e-03  9.5482872548631101e-04  1.0595120359085117e-03  9.9024798814343479e-04  1.0716969219456943e-03  1.0098880866027703e-03  1.0262739856384735e-03  1.0611330123938855e-03  1.0257813568211285e-03  1.0541019643075784e-03  9.9158684417698898e-04  1.0632517570738119e-03  9.5993511028475255e-04  9.8618854186111700e-04  9.0115610316720228e-04  1.0443700475861971e-03  1.0632863657691997e-03  9.8230471363271415e-04  1.0313430968604813e-03  9.6685761869854791e-04  1.0554388608279060e-03  1.0325698583741006e-03  9.3878140938406188e-04  1.0697816291212379e-03  9.9797440934004970e-04  8.8904324769482380e-04  1.1147256872032524e-03  9.7035357788291890e-04  1.0332181999656541e-03  1.0787540060325138e-03  9.8017456730273094e-04  1.1053666008951088e-03  1.1019483278115973e-03  9.3525887866588811e-04  1.0341975396080021e-03  8.8225932814854039e-04  1.0797959473075153e-03  1.5101389741123186e-04  1.4793071214601826e-04  1.3190214930193958e-04  1.0784757165711846e-04  9.0365728274206217e-04  2.0173576525513959e-04  8.7340963836628671e-04  2.1173726247653954e-04  7.9796980341378357e-04  1.8478543959280896e-04  1.7521173860554471e-04  8.3754505639778063e-04  1.4677205852485647e-04  9.0458437336051205e-04  1.3084593931448021e-04  9.5670837993757390e-05  9.0406646756741732e-04  9.2007540799560029e-05  8.9668961932712213e-04  8.0016824083089914e-04  1.0585836761041285e-03  1.4110536055404740e-04  1.5457932472333596e-04  1.6147060396411585e-04  7.4460996375656037e-04  1.7445669402203821e-04  9.0666666222270713e-05  8.3860538494594524e-05  1.1979715534705479e-04  1.7347157586947363e-04  1.1154248192113812e-04  2.0027346050224514e-04  1.1021277235353522e-04  6.4618878403969391e-05  1.4520591037068813e-04  6.8551635047551073e-05  6.4324867759578226e-05  1.4083660906749932e-04  5.2546496396683573e-05  7.0918322932111066e-04  6.1591849756703480e-04  6.4157020589498655e-04  5.7824183703971581e-04  4.7931434281264866e-04  4.5549585697511765e-05  4.3865215907903590e-04  5.3266463168461528e-04  3.2857925436239287e-04  1.1116743532025599e-03  1.1185323689801318e-03  1.1267517102949078e-03  1.1184607671277183e-03  1.1223508721731731e-03  1.0974468882925974e-03  1.0918953668883310e-03  1.0972735471240190e-03  1.0526490359895281e-03  1.0404668816215499e-03  9.8054211426394167e-04  9.6108054876143344e-04  8.8094598729521396e-04  8.9769449722720276e-04  1.0262340992580876e-03  9.2869629749476939e-04  9.7990923205411849e-04  8.7769195946249339e-04  9.3525686267686742e-04  7.8230140050064285e-04  7.9497893187500143e-04  8.1785524702461033e-04  8.7606565738561099e-04  7.4674124096613093e-04  8.0432448723889640e-04  8.0583959270292822e-04  1.1205423832373542e-03  1.0843140242851599e-03  1.1166076179098367e-03  1.0566605085424946e-03  1.0834651541328020e-03  1.0080998403655811e-03  1.0321873057346290e-03  9.3684969331786364e-04  9.0382887224519444e-04  9.5584385472371927e-04  8.1628089716401339e-04  7.7825463678315781e-04  1.0429992088986666e-03  9.6209257267753647e-04  1.0401744660926454e-03  9.5774209089041112e-04  1.0291003985635854e-03  9.4168547747365387e-04  1.0071938519150801e-03  9.1492698772803580e-04  9.7664640568086939e-04  8.7892768501942372e-04  9.3843105531020909e-04  8.3213599907848597e-04  8.8394144041292440e-04  7.7285451539940762e-04  8.1894171844592862e-04  7.0179955935809188e-04  7.3652784458625342e-04  6.1948166599154518e-04  6.4366510762176737e-04  5.2856410494527190e-04  7.5142465116103405e-04  6.5121651671844801e-04  8.5357448283894294e-04  8.2458835180373861e-04  5.8006570528195084e-04  7.5023834270747391e-04  6.4366721466676549e-04  5.4130157282214150e-04  8.4401270113350975e-04  7.5814023313798746e-04  9.1539040982056331e-04  8.4432642710396228e-04  7.2483372762653544e-04  7.6203058224534072e-04  6.3428113182219259e-04  6.6829519508227906e-04  7.8302276625058509e-04  6.8539330237344916e-04  7.8670234909432584e-04  6.8522395392714604e-04  5.8204838542978341e-04  5.7581774937535361e-04  6.6676821108462578e-04  4.7772873535106792e-04  5.4997310486562935e-04  6.2810278110122478e-04  5.3782296899747045e-04  6.8125522234094695e-04  6.4136555102745074e-04  1.0203939121902279e-03  7.2499285452888519e-04  5.8648768135211168e-04  9.6741549277617306e-04  5.2523345372540464e-04  6.7099678253173308e-04  6.7882808856923552e-04  6.2238267479725398e-04  9.3842967638140299e-04  1.1217429854447492e-03  1.0668350290153629e-03  5.0457171386195836e-04  5.7361565612464298e-04  4.2901536576765850e-04  6.4400861217002990e-04  6.9400735927056963e-04  6.3318526966984459e-04  5.0350612912237536e-04  5.5646267166424091e-04  1.1111541134531109e-03  7.0727746670910178e-04  5.6302066126716105e-04  6.7352014594327086e-04  9.9407179425446061e-04  5.9481424140872432e-04  4.9672306746377330e-04  5.8948221922291186e-04  8.4265194054763091e-04  9.1923451200601528e-04  5.5057210749279216e-04  5.5492211967441091e-04  4.2441377916488013e-04  4.1068201192430957e-04  4.6584341671019892e-04  6.0587453660091784e-04  5.1802581509980696e-04  1.0245385369916922e-03  7.1126525747466506e-04  7.9374879189435938e-04  8.7653162545918070e-04  8.6896730698165733e-04  1.0929536893470270e-03  1.0025743142040475e-03  5.7598484233854492e-04  4.9867487853594013e-04  4.4565690916937179e-04  4.5893560930012841e-04  5.6880917683732385e-04  4.1324494522357135e-04  9.4182336023679932e-04  9.3225938534746114e-04  8.5450903274334714e-04  7.5416899236302568e-04  3.6450420098931095e-04  9.2220091633102145e-04  9.7667533862624205e-04  4.2490373602613215e-04  4.2794490522812264e-04  3.7947396787368231e-04  3.1027033302999445e-04  4.8715398163927588e-04  3.9619970725014183e-04  6.5031282927976346e-04  5.6622208657582291e-04  4.2037510793729963e-04  4.5084275915127973e-04  5.9091972466386112e-04  4.7927810371324798e-04  6.1063335263118951e-04  5.0272341760557008e-04  6.2520003817605858e-04  5.1503339635582080e-04  6.4486966374618102e-04  5.2548815208404095e-04  6.2778072113966229e-04  5.1935332694020870e-04  6.0534682609561421e-04  4.9564167351353098e-04  5.9040436976556321e-04  4.6732177631554227e-04  5.3935159392100242e-04  4.2762816625214724e-04  4.8947259282342969e-04  3.7888567707414786e-04  4.2787384446363254e-04  4.1097682933506505e-04  3.2370182077034164e-04  5.4554093963061936e-04  4.7128898561230156e-04  2.7743616369063553e-04  3.5568322858675741e-04  3.9100974928021822e-04  5.2034040161598656e-04  6.3293718856002423e-04  4.1696969710549388e-04  2.2979738578818981e-04  5.2933646054091784e-04  4.1887243524832212e-04  2.6189572403262482e-04  3.9110507858993593e-04  1.8811232973275056e-04  3.7493861349936064e-04  7.3148582186305529e-04  4.2631141787482390e-04  4.6932907606538407e-04  3.7301485070412229e-04  2.2170132537951691e-04  6.4634082416180805e-04  3.5222631975863626e-04  4.3818105337032248e-04  3.2838327134074351e-04  3.3585536780054949e-04  7.4784695596921886e-04  3.7244554731730070e-04  2.6859719529918316e-04  2.4685512651965140e-04  4.7206156203954009e-05  4.1048270110303974e-05  3.8830359882029646e-04  3.4936459454695942e-04  2.7254938549917986e-04  1.7842899952138824e-04  1.0402888254997624e-03  5.1077197109518997e-04  5.8775386413504563e-04  4.1393235521199631e-04  9.6901997037716068e-04  4.1318115924400317e-04  4.0952024342640048e-04  4.7422200861921683e-04  2.8613007046843084e-04  9.8493272876943195e-04  9.9523658879530443e-04  9.7323571093476812e-04  4.3557186507583984e-04  1.7840463704163077e-04  9.1136541657991534e-04  3.0552428717591683e-04  3.0906999744874706e-04  5.5339981148912003e-04  4.2052032671668264e-04  3.7475205175169815e-04  6.4753188363258260e-04  8.0137041963949615e-04  8.6923818212256089e-04  8.1183536510257904e-04  8.9399483053204120e-04  4.1386379708294348e-04  2.8779362801194843e-04  1.0052700600479746e-03  1.0202564929175243e-03  2.9422503285208402e-04  3.5768513733020586e-04  3.1031396947352104e-04  1.0378698082681265e-03  2.7381182837796968e-04  1.9555295640301607e-04  7.6726833670734905e-04  1.1148494027683439e-03  1.1304412050416786e-03  1.1309155437965440e-03  1.8673470174581999e-04  1.8405951933376949e-04  7.1814160003361984e-04  5.7290325061191950e-04  5.1027162640153011e-04  6.3779477051709469e-04  2.4204053242954520e-04  2.4042683029991779e-04  3.2428131003092237e-04  2.2188916629696870e-04  2.8962851281716753e-04  1.5194241698469793e-04  1.7983737322866769e-04  7.3017357933769682e-04  7.3459660942923636e-04  1.1180648016759567e-03  1.1309632699270740e-03  3.4496127736976980e-04  9.4996863884752830e-04  5.1050534449492116e-04  2.9087814588725258e-04  1.1961011292654916e-04  9.9649785774910855e-04  8.8786767233613401e-04  8.1385960907679161e-04  7.8398592169242351e-04  1.0351304998661181e-03  1.0643391373843702e-03  7.8933377408647745e-04  8.2558426396828817e-04  7.9758458774521605e-04  8.3951402397129898e-04  3.0171467402090980e-04  2.7894365651524384e-04  7.5672622965194621e-04  6.3411700249496096e-04  6.4566126247958295e-04  6.0792413076351582e-04  1.7127618916833499e-04  2.4172612411141474e-04  1.5816722569071947e-04  9.1493543195856947e-04  1.3565147221329343e-04  1.1016480029873312e-04  5.1853014871921355e-05  1.0662362282739537e-03  1.0706280165146890e-03  1.0875250794304563e-03  1.0947475651344580e-03  1.0973280227160188e-03  6.0404593910965072e-04  6.6370263929445598e-04  7.2271748329024344e-04  7.7490390755956609e-04  7.3320707109886165e-04  8.2674001401255627e-04  9.5653579342850942e-04  9.1231333150691501e-04  8.6894062215690923e-04  9.1735198615632788e-04  8.9131215898166096e-04  2.1236308091894974e-04  7.5286575902625366e-04  1.1292630891546831e-03  8.9446536906469091e-04  1.0209007020212605e-03  6.9659928682361174e-04  1.0954801201797971e-03  1.1148246215997052e-03  1.1072144066104730e-03  1.1163988843681488e-03  1.1238880902741432e-03  1.1063898879981641e-03  1.1134783782089036e-03  1.0980006817731230e-03  1.0931545850672831e-03  1.0867987979282158e-03  1.0740741917661825e-03  1.0710001738138168e-03  1.0536115259517564e-03  1.0503095531219796e-03  1.0617919129415334e-03  1.0692999400787669e-03  1.4050470532387635e-04  9.1812461001058272e-04  7.5702139778805442e-04  1.0572879066052600e-04  9.0623221298613533e-04  1.3428148256402889e-04  7.2252089074625891e-04  8.1573539721769195e-04  6.9473687518095001e-04  7.7381040424033879e-04  7.8757536034625630e-04  3.1640403243308335e-04  2.4901844532694854e-04  1.0662704588373952e-04  1.2890915306118530e-04  1.0469199795519815e-03  8.2438850687239996e-04  1.4605823614338522e-04  2.0911146486630891e-04  1.0249628428012415e-03  2.1412041117148763e-04  1.0689898898150504e-03  1.0291971199810096e-03  6.1545760413428310e-04  3.3552301413380736e-04  7.7196303584775737e-05  6.8587484672598181e-04  1.0339081211167370e-04  9.7610184309125040e-04  1.0873135525307632e-03  8.4067104356858285e-04  9.2142957278133568e-04  1.0929584838572102e-03  9.8124300908894219e-04  2.0537262728627026e-04  3.7771309920233873e-04  3.6737448198133756e-04  5