<?xml version="1.0"?>
<VTKFile type="UnstructuredGrid"  version="0.1"  >
<UnstructuredGrid>
<Piece  NumberOfPoints="1078" NumberOfCells="2058">
<Points>
<DataArray  type="Float64"  NumberOfComponents="3"  format="ascii">0 0 0  0 1 0  1 1 0  1 0 0  1.1 -0.1 0  -0.1 -0.1 0  1.1 1.1 0  -0.1 1.1 0  0.5002062040803054 0.5606387280326794 0  0 0.9499999999997918 0  0 0.8999999999995836 0  0 0.8499999999996529 0  0 0.7999999999999998 0  0 0.7500000000003466 0  0 0.7000000000006934 0  0 0.6500000000010401 0  0 0.6000000000013869 0  0 0.5500000000017335 0  0 0.5000000000020587 0  0 0.4500000000018723 0  0 0.4000000000016644 0  0 0.3500000000014564 0  0 0.3000000000012483 0  0 0.2500000000010403 0  0 0.2000000000008322 0  0 0.1500000000006241 0  0 0.100000000000416 0  0 0.05000000000020799 0  0.04999999999989965 0 0  0.09999999999981467 0 0  0.1499999999997036 0 0  0.1999999999995579 0 0  0.2499999999994121 0 0  0.2999999999992664 0 0  0.3499999999991206 0 0  0.3999999999989749 0 0  0.4499999999988292 0 0  0.4999999999986943 0 0  0.5499999999988151 0 0  0.5999999999989468 0 0  0.6499999999990784 0 0  0.69999999999921 0 0  0.7499999999993417 0 0  0.7999999999994734 0 0  0.8499999999996051 0 0  0.8999999999997368 0 0  0.9499999999998684 0 0  1 0.04999999999989965 0  1 0.09999999999981467 0  1 0.1499999999997036 0  1 0.1999999999995579 0  1 0.2499999999994121 0  1 0.2999999999992664 0  1 0.3499999999991206 0  1 0.3999999999989749 0  1 0.4499999999988292 0  1 0.4999999999986943 0  1 0.5499999999988151 0  1 0.5999999999989468 0  1 0.6499999999990784 0  1 0.69999999999921 0  1 0.7499999999993417 0  1 0.7999999999994734 0  1 0.8499999999996051 0  1 0.8999999999997368 0  1 0.9499999999998684 0  0.9499999999997918 1 0  0.8999999999995836 1 0  0.8499999999996529 1 0  0.7999999999999998 1 0  0.7500000000003466 1 0  0.7000000000006934 1 0  0.6500000000010401 1 0  0.6000000000013869 1 0  0.5500000000017335 1 0  0.5000000000020587 1 0  0.4500000000018723 1 0  0.4000000000016644 1 0  0.3500000000014564 1 0  0.3000000000012483 1 0  0.2500000000010403 1 0  0.2000000000008322 1 0  0.1500000000006241 1 0  0.100000000000416 1 0  0.05000000000020799 1 0  -0.1 1.05000000000004 0  -0.1 1.000000000000079 0  -0.1 0.9500000000001624 0  -0.1 0.9000000000003032 0  -0.1 0.850000000000444 0  -0.1 0.8000000000005848 0  -0.1 0.7500000000007256 0  -0.1 0.7000000000008665 0  -0.1 0.6500000000010508 0  -0.1 0.6000000000012352 0  -0.1 0.5500000000014196 0  -0.1 0.500000000001539 0  -0.1 0.4500000000014195 0  -0.1 0.4000000000013 0  -0.1 0.3500000000011588 0  -0.1 0.3000000000010178 0  -0.1 0.2500000000008986 0  -0.1 0.2000000000007579 0  -0.1 0.1500000000006174 0  -0.1 0.1000000000005272 0  -0.1 0.05000000000040083 0  -0.1 2.671196597248127e-13 0  -0.1 -0.0499999999998666 0  -0.0500000000000906 -0.1 0  -1.730560139634463e-13 -0.1 0  0.04999999999975802 -0.1 0  0.09999999999961506 -0.1 0  0.1499999999994613 -0.1 0  0.199999999999302 -0.1 0  0.2499999999991446 -0.1 0  0.2999999999990088 -0.1 0  0.3499999999988296 -0.1 0  0.3999999999986936 -0.1 0  0.4499999999985143 -0.1 0  0.4999999999984002 -0.1 0  0.5499999999985247 -0.1 0  0.5999999999986493 -0.1 0  0.6499999999987955 -0.1 0  0.6999999999989417 -0.1 0  0.7499999999990659 -0.1 0  0.7999999999992116 -0.1 0  0.8499999999993573 -0.1 0  0.8999999999994526 -0.1 0  0.949999999999584 -0.1 0  0.9999999999997226 -0.1 0  1.049999999999861 -0.1 0  1.1 -0.0500000000000906 0  1.1 -1.730560139634463e-13 0  1.1 0.04999999999975802 0  1.1 0.09999999999961506 0  1.1 0.1499999999994613 0  1.1 0.199999999999302 0  1.1 0.2499999999991446 0  1.1 0.2999999999990088 0  1.1 0.3499999999988296 0  1.1 0.3999999999986936 0  1.1 0.4499999999985143 0  1.1 0.4999999999984002 0  1.1 0.5499999999985247 0  1.1 0.5999999999986493 0  1.1 0.6499999999987955 0  1.1 0.6999999999989417 0  1.1 0.7499999999990659 0  1.1 0.7999999999992116 0  1.1 0.8499999999993573 0  1.1 0.8999999999994526 0  1.1 0.949999999999584 0  1.1 0.9999999999997226 0  1.1 1.049999999999861 0  1.05000000000004 1.1 0  1.000000000000079 1.1 0  0.9500000000001624 1.1 0  0.9000000000003032 1.1 0  0.850000000000444 1.1 0  0.8000000000005848 1.1 0  0.7500000000007256 1.1 0  0.7000000000008665 1.1 0  0.6500000000010508 1.1 0  0.6000000000012352 1.1 0  0.5500000000014196 1.1 0  0.500000000001539 1.1 0  0.4500000000014195 1.1 0  0.4000000000013 1.1 0  0.3500000000011588 1.1 0  0.3000000000010178 1.1 0  0.2500000000008986 1.1 0  0.2000000000007579 1.1 0  0.1500000000006174 1.1 0  0.1000000000005272 1.1 0  0.05000000000040083 1.1 0  2.671196597248127e-13 1.1 0  -0.0499999999998666 1.1 0  0.5354622835468994 0.5531117695956417 0  0.5665361235578926 0.5306690670892563 0  0.5789928105265204 0.4946156563311671 0  0.5820844710759363 0.4588813849861972 0  0.5818423624997618 0.4236639895118268 0  0.578299672600741 0.3887564187334122 0  0.5710608868471548 0.3541724098163899 0  0.5590819548478123 0.3204169210883134 0  0.5398345250014168 0.2892653423813417 0  0.5097788201823826 0.2676566384860346 0  0.4743835245174198 0.2646257824356021 0  0.440836373844574 0.2713459079789365 0  0.4093816929209961 0.2819188330106021 0  0.3792072045897386 0.2950028831197737 0  0.350180549525979 0.3098763678586759 0  0.3222326517544429 0.326163989994146 0  0.2952229585220125 0.3436623262170787 0  0.2693901882539901 0.3623869170435618 0  0.2447769115425553 0.3824574434133745 0  0.221669843405363 0.4040152656562204 0  0.2010459345144396 0.4275396912236147 0  0.1858154849159975 0.4543597856518212 0  0.1911056078329611 0.4834064410629877 0  0.2155357052790455 0.5032705870209635 0  0.2440505057942666 0.5175937885621711 0  0.2739595192262401 0.5290311680356289 0  0.3046497602300657 0.538390368327936 0  0.3359133106352092 0.546094361165759 0  0.3676705884183427 0.5522781312350926 0  0.3999353225956502 0.5570260792951806 0  0.4326747573326357 0.5603275468492254 0  0.4659929044724618 0.5617551410999592 0  0.5487616612104534 0.4091823182352062 0  0.3801154612254069 0.333858899562622 0  0.4245063815421194 0.5235483936924101 0  0.2992425233471437 0.3810592698186036 0  0.3546491611827986 0.5164161009181994 0  0.4403887253319875 0.309751621513537 0  0.4865249505735084 0.5270892918300409 0  0.2940457451605241 0.5014219066529244 0  0.5344341774903384 0.3435091284594 0  0.2520426320090788 0.4203060716993819 0  0.5477254327456198 0.4772355787737743 0  0.5007323168947868 0.2949379216638952 0  0.2376419924841415 0.4793810044608205 0  0.2114342081020562 0.4644999748805899 0  0.5422307875388346 0.5133160789169328 0  0.510431305388769 0.4966026822702548 0  0.5199849964308085 0.457504895323647 0  0.4867910235082085 0.4707081245228339 0  0.4924712900088193 0.4349406080263566 0  0.4600031961052648 0.4469183700407671 0  0.4655132373417599 0.4100050384597998 0  0.4330930513018931 0.4219573590922236 0  0.4376615234560784 0.384919753284205 0  0.4058197205278301 0.3963524037309691 0  0.4013817259937331 0.4339781454083824 0  0.374637123330683 0.407870342526864 0  0.4702472834475262 0.3735570798638057 0  0.3706967777250294 0.445483487742544 0  0.3455373315824024 0.4196979765663892 0  0.3420562746302351 0.4557722983856582 0  0.3959477794177496 0.4720459955224571 0  0.3498397492886964 0.3829080179911463 0  0.3173093476298549 0.4312421012047916 0  0.4509459293502336 0.4872334107084147 0  0.4406041143126365 0.3481571469066018 0  0.4704887122299662 0.3371294213313951 0  0.496756439257219 0.4002752540285093 0  0.4277367636330004 0.4595410341757536 0  0.5065156688714421 0.3655177544747038 0  0.4090483317531128 0.359471771042419 0  0.3785911584421361 0.3710116030073346 0  0.3900974234708334 0.5134218970669014 0  0.3240495818345877 0.5099345948762026 0  0.4563404567403533 0.5266047382152017 0  0.2742902364530942 0.3990124085883193 0  0.284837469149302 0.4365447365593859 0  0.4097907423258814 0.3213577947166182 0  0.3128454636632982 0.4706276269341342 0  0.26531398008041 0.4926473266594685 0  0.2307567189626284 0.4417777111802094 0  0.3506896547505631 0.3471335682744247 0  0.544166384523464 0.3759360875761369 0  0.5505740717873141 0.4422692069865859 0  0.3673510200987766 0.4814442318706441 0  0.2575159751715789 0.4568629372459211 0  0.5274801401680409 0.3162805523680132 0  0.3238452856826143 0.3625616587437485 0  0.4714856305399557 0.301930519840588 0  0.4194423483204656 0.4909815170020875 0  0.50247411660613 0.3296394164144212 0  0.5224533325508575 0.4241384711823284 0  0.283077939145655 0.4716539299385107 0  0.3232063800184095 0.3969380386474109 0  0.4772297304264398 0.5004108602510722 0  0.5142082893103177 0.5305718194628322 0  0.3402695136444136 0.4868773022647465 0  0.5238141055501366 0.3950322780630042 0  0.2974152097000162 0.4094616484911885 0  0.5801910406792919 0.3346150366267756 0  0.598860915264516 0.4426235723655997 0  0.3183618237227493 0.5593365241932227 0  0.5161070369220898 0.573471815546986 0  0.9740418220025427 0.6947568355365127 0  0.6391669657182392 0.9771111157035178 0  0.4139795764846956 0.5766091701760521 0  0.9837475169067628 0.5330937337373536 0  0.9767286121477077 0.2706300775678813 0  0.2819960942670743 0.9687838140903051 0  0.2995883816928224 0.3182269187233994 0  0.3853085726770371 0.2711225670553467 0  0.4373383954964282 0.9755383954247944 0  0.2280434694146055 0.5274869826188617 0  0.05119682002465346 0.7490988483672768 0  0.7044541594242975 0.03550031777643938 0  0.2219627720849032 0.3763016382565239 0  0.5889465715700686 0.5143727050504864 0  0.794825233933972 0.9763210010909303 0  0.2268072218266112 0.03130011341801739 0  0.04186934038291999 0.2216957691032926 0  0.1815520145408429 0.4237114051295536 0  0.5524103997002038 0.03497830549188941 0  0.390441866574904 0.0294233219895369 0  0.8488100324101836 0.03755134816097559 0  0.1717941728282886 0.471465972104582 0  0.4529519750881065 0.2531058830579517 0  0.04287736985944401 0.5922042691821249 0  0.9797567529618173 0.8425877629314945 0  0.03669483895180321 0.3231987587618109 0  0.5791871564564323 0.5434705514233569 0  0.6021503499113815 0.530329835499696 0  0.59422692845
[...]
<PointData  Scalars="v"> 
<DataArray  type="Float64"  Name="v"  format="ascii">0.0000000000000000e+00  0.0000000000000000e+00  0.0000000000000000e+00  0.0000000000000000e+00  0.0000000000000000e+00  0.0000000000000000e+00  0.0000000000000000e+00  0.0000000000000000e+00  1.6769167628702161e-03  0.0000000000000000e+00  0.0000000000000000e+00  0.0000000000000000e+00  0.0000000000000000e+00  0.0000000000000000e+00  0.0000000000000000e+00  0.0000000000000000e+00  0.0000000000000000e+00  0.0000000000000000e+00  0.0000000000000000e+00  0.0000000000000000e+00  0.0000000000000000e+00  0.0000000000000000e+00  0.0000000000000000e+00  0.0000000000000000e+00  0.0000000000000000e+00  0.0000000000000000e+00  0.0000000000000000e+00  0.0000000000000000e+00  0.0000000000000000e+00  0.0000000000000000e+00  0.0000000000000000e+00  0.0000000000000000e+00  0.0000000000000000e+00  0.0000000000000000e+00  0.0000000000000000e+00  0.0000000000000000e+00  0.0000000000000000e+00  0.0000000000000000e+00  0.0000000000000000e+00  0.0000000000000000e+00  0.0000000000000000e+00  0.0000000000000000e+00  0.0000000000000000e+00  0.0000000000000000e+00  0.0000000000000000e+00  0.0000000000000000e+00  0.0000000000000000e+00  0.0000000000000000e+00  0.0000000000000000e+00  0.0000000000000000e+00  0.0000000000000000e+00  0.0000000000000000e+00  0.0000000000000000e+00  0.0000000000000000e+00  0.0000000000000000e+00  0.0000000000000000e+00  0.0000000000000000e+00  0.0000000000000000e+00  0.0000000000000000e+00  0.0000000000000000e+00  0.0000000000000000e+00  0.0000000000000000e+00  0.0000000000000000e+00  0.0000000000000000e+00  0.0000000000000000e+00  0.0000000000000000e+00  0.0000000000000000e+00  0.0000000000000000e+00  0.0000000000000000e+00  0.0000000000000000e+00  0.0000000000000000e+00  0.0000000000000000e+00  0.0000000000000000e+00  0.0000000000000000e+00  0.0000000000000000e+00  0.0000000000000000e+00  0.0000000000000000e+00  0.0000000000000000e+00  0.0000000000000000e+00  0.0000000000000000e+00  0.0000000000000000e+00  0.0000000000000000e+00  0.0000000000000000e+00  0.0000000000000000e+00  0.0000000000000000e+00  0.0000000000000000e+00  0.0000000000000000e+00  0.0000000000000000e+00  0.0000000000000000e+00  0.0000000000000000e+00  0.0000000000000000e+00  0.0000000000000000e+00  0.0000000000000000e+00  0.0000000000000000e+00  0.0000000000000000e+00  0.0000000000000000e+00  0.0000000000000000e+00  0.0000000000000000e+00  0.0000000000000000e+00  0.0000000000000000e+00  0.0000000000000000e+00  0.0000000000000000e+00  0.0000000000000000e+00  0.0000000000000000e+00  0.0000000000000000e+00  0.0000000000000000e+00  0.0000000000000000e+00  0.0000000000000000e+00  0.0000000000000000e+00  0.0000000000000000e+00  0.0000000000000000e+00  0.0000000000000000e+00  0.0000000000000000e+00  0.0000000000000000e+00  0.0000000000000000e+00  0.0000000000000000e+00  0.0000000000000000e+00  0.0000000000000000e+00  0.0000000000000000e+00  0.0000000000000000e+00  0.0000000000000000e+00  0.0000000000000000e+00  0.0000000000000000e+00  0.0000000000000000e+00  0.0000000000000000e+00  0.0000000000000000e+00  0.0000000000000000e+00  0.0000000000000000e+00  0.0000000000000000e+00  0.0000000000000000e+00  0.0000000000000000e+00  0.0000000000000000e+00  0.0000000000000000e+00  0.0000000000000000e+00  0.0000000000000000e+00  0.0000000000000000e+00  0.0000000000000000e+00  0.0000000000000000e+00  0.0000000000000000e+00  0.0000000000000000e+00  0.0000000000000000e+00  0.0000000000000000e+00  0.0000000000000000e+00  0.0000000000000000e+00  0.0000000000000000e+00  0.0000000000000000e+00  0.0000000000000000e+00  0.0000000000000000e+00  0.0000000000000000e+00  0.0000000000000000e+00  0.0000000000000000e+00  0.0000000000000000e+00  0.0000000000000000e+00  0.0000000000000000e+00  0.0000000000000000e+00  0.0000000000000000e+00  0.0000000000000000e+00  0.0000000000000000e+00  0.0000000000000000e+00  0.0000000000000000e+00  0.0000000000000000e+00  0.0000000000000000e+00  0.0000000000000000e+00  0.0000000000000000e+00  0.0000000000000000e+00  0.0000000000000000e+00  0.0000000000000000e+00  0.0000000000000000e+00  0.0000000000000000e+00  0.0000000000000000e+00  0.0000000000000000e+00  0.0000000000000000e+00  0.0000000000000000e+00  0.0000000000000000e+00  0.0000000000000000e+00  0.0000000000000000e+00  0.0000000000000000e+00  1.6929257468708079e-03  1.7001087810171378e-03  1.6818477898169267e-03  1.6644873725233040e-03  1.6462871618583188e-03  1.6263539398250503e-03  1.6028073677540782e-03  1.5739387793015259e-03  1.5403108478102955e-03  1.5035042464768029e-03  1.4976204793557771e-03  1.4965607470273871e-03  1.4935678591661290e-03  1.4899025809371653e-03  1.4830394642069886e-03  1.4725876004039844e-03  1.4578816423589150e-03  1.4380121475418761e-03  1.4128688658754322e-03  1.3817879623953147e-03  1.3452621827009850e-03  1.2939593777432227e-03  1.3140308656171688e-03  1.3912405966761783e-03  1.4453074119519776e-03  1.4902387818057029e-03  1.5290924861479400e-03  1.5626393568558988e-03  1.5918467348437885e-03  1.6189464153759723e-03  1.6407545438108346e-03  1.6601456523717098e-03  1.6192355629107520e-03  1.5311500537313716e-03  1.6114780212836573e-03  1.4952519553920799e-03  1.5608190772821962e-03  1.5457147161220791e-03  1.6408453422710402e-03  1.5068131837883381e-03  1.5844274195443240e-03  1.4563863386716966e-03  1.6465795243589443e-03  1.5539220635191549e-03  1.4479776512986227e-03  1.4145363565552941e-03  1.6570797792073923e-03  1.6420732135579150e-03  1.6320072657209433e-03  1.6263576856399074e-03  1.6145878188601882e-03  1.6055103408602763e-03  1.5945739397782129e-03  1.5841203869266288e-03  1.5726095780044733e-03  1.5610067811854282e-03  1.5709653850961337e-03  1.5463046440076340e-03  1.5810468176729940e-03  1.5549208970739973e-03  1.5302512474272010e-03  1.5383259943665970e-03  1.5798056706641064e-03  1.5255262585347038e-03  1.5124630271979233e-03  1.6151966803907912e-03  1.5597801809907543e-03  1.5645501020942994e-03  1.6029897052478185e-03  1.5941293832563330e-03  1.5901064355457535e-03  1.5507459557846954e-03  1.5391275962057308e-03  1.5865552641277515e-03  1.5373982422013936e-03  1.6289128515362358e-03  1.4770358531742060e-03  1.4864677408909636e-03  1.5396492140342330e-03  1.5182208551279581e-03  1.4782707837702855e-03  1.4376910845368194e-03  1.5194310956025876e-03  1.6046405541837651e-03  1.6338643674043869e-03  1.5614043303676739e-03  1.4634494029223994e-03  1.5702439452769711e-03  1.5074163938098828e-03  1.5516874071420841e-03  1.5994506735970398e-03  1.5713610409926915e-03  1.6192836471614366e-03  1.4892852630345821e-03  1.5104556882222270e-03  1.6311628196670179e-03  1.6541056825479640e-03  1.5445553929699794e-03  1.6085005843318146e-03  1.4933897050430299e-03  1.5895104418375595e-03  1.6762834027802284e-03  1.5530630550213338e-03  1.7138254941687755e-03  1.9276710892690164e-04  1.8194366299968887e-04  1.6523807363083649e-03  1.6654467935782184e-04  1.4854241733697489e-04  1.8103216132540705e-04  1.4070290460807154e-03  1.4316433236043126e-03  2.0369256972550977e-04  1.3924256783398035e-03  2.1612591000419703e-04  1.9620138744243337e-04  1.3154079920138721e-03  1.7160745454219421e-03  1.3195493741716588e-04  1.2171341552460780e-04  1.5203880642368882e-04  1.2250222508857387e-03  2.2856810714106369e-04  1.8317110318777512e-04  1.1707898406642257e-04  1.1956335447016705e-03  1.4501607556325132e-03  2.4793187894806066e-04  9.4587974871299999e-05  1.8643660044562809e-04  1.7351776658625104e-03  1.7475281074307682e-03  1.7660833173034315e-03  1.7688540037081723e-03  1.7841777365475056e-03  1.7731943602126755e-03  1.7803988585119051e-03  1.7531861707404178e-03  1.7474834252085988e-03  1.7730156526271662e-03  1.7434132034304431e-03  1.7223680297242141e-03  1.7419898362148883e-03  1.6959881282406441e-03  1.6719496647399697e-03  1.6826360963844566e-03  1.5915223579986758e-03  1.5683708372992273e-03  1.5928310296267939e-03  1.6721663940680938e-03  1.5677323370841408e-03  1.6395991161998605e-03  1.5190144757191832e-03  1.5859265221337263e-03  1.4510991140617594e-03  1.5128001943628452e-03  1.4677591150817520e-03  1.4324807142145806e-03  1.3641280200937065e-03  1.4172949519451496e-03  1.4241088078224338e-03  1.3156387055444090e-03  1.2705052397517949e-03  1.2555671692658654e-03  1.2993541605576080e-03  1.1428176545558561e-03  1.0909632651194302e-03  1.1984505777884995e-03  1.4415208622619571e-03  1.3145684056972875e-03  1.1618744654552304e-03  1.1654180009303817e-03  1.0096363287667900e-03  1.0106769205317485e-03  1.0983883682715036e-03  1.2981784273920554e-03  1.1386441610838152e-03  1.1675634076583178e-03  1.6248465596575923e-03  1.2547331722493557e-03  1.0839570409698772e-03  1.1822050884740729e-03  9.0132959154102035e-04  1.2030359867960751e-04  8.1797392564734268e-04  1.9507678644389159e-04  1.4245427111638889e-04  9.0156023250221622e-05  1.1066340408371299e-04  1.3911126918371515e-03  1.2068572564230963e-03  1.0659748462571433e-03  1.0751400639102278e-03  9.1707433702553447e-04  8.9177194162971644e-04  9.2566781568711987e-04  1.7805923836542216e-03  9.8785989879263104e-04  9.6458104297870669e-04  1.0664942496205502e-03  9.1843318391747112e-05  8.9775695999613683e-04  9.8883461319761732e-04  1.1888422055369345e-03  1.0773119096666702e-03  9.2804073495586742e-04  7.1295394357825178e-04  7.8000268896995662e-04  1.7194007342311254e-03  7.3405487369881408e-04  7.3412219298151806e-04  1.3069067259388280e-03  1.1638331501092085e-03  9.6654020299485942e-04  1.0045511923827211e-03  1.1925210543276422e-03  1.0216871523991875e-03  1.2021906904714184e-03  1.0187862795626615e-03  1.1916092654253841e-03  9.9203948151409672e-04  1.1566428196722106e-03  9.5093390786038252e-04  1.1005378999531226e-03  1.2927394927079794e-03  1.2243299799758779e-03  1.0320020656114893e-03  1.1421299782664611e-03  1.3165148318014968e-03  1.2243017301165468e-03  1.0479722742945561e-03  1.1171936071497487e-03  9.4421875409371242e-04  9.9143891442337673e-04  1.1520859686388386e-03  8.2741068651398281e-04  1.0088424119135647e-03  1.4810618025642467e-03  1.1520724047217115e-03  1.3113175851232482e-03  9.9810147752767164e-04  1.1237477214729524e-03  9.5163174895613982e-04  1.0673099254586344e-03  8.5820201314985747e-04  8.5589822091131399e-04  1.2525806931914343e-03  8.8128520229582862e-04  1.0054880716739698e-03  9.7716275814657824e-04  8.5855809120373081e-04  8.2401115334197327e-04  8.0107721536532085e-05  6.3122975773883953e-04  5.3507150768569082e-04  1.3634941547292286e-03  1.4302879429377163e-03  1.3946020843942553e-03  1.3238843914516014e-03  1.4439642969221417e-03  5.8783614953103556e-04  8.0624320117223393e-04  8.3924338597159305e-04  6.5053745241072940e-04  7.6823958264253035e-04  1.7509293918851650e-03  7.8608108763351654e-04  7.4331775080918182e-04  9.6326053068974949e-04  5.4367068588813123e-04  1.0839364426971916e-03  7.0779218877346436e-04  7.9590878240682369e-04  8.8715707038380476e-04  8.0997583726420675e-04  8.5959080790797698e-04  7.7733379025359797e-04  7.3498701756914816e-04  9.6846287900436106e-04  7.9910194871348590e-05  5.9539573215456828e-04  7.5766835910959902e-04  5.7274032939326751e-04  7.3098571768756831e-04  1.0773875838388826e-03  1.3430479512544105e-03  7.3262107163446196e-04  5.9625850050876086e-04  6.5376321110067158e-04  7.4230357436612751e-04  4.5826487128904282e-04  5.2361398097389318e-04  3.7763751890041976e-04  1.7768531528445045e-03  4.7963807081127422e-04  5.2406003465865867e-04  7.7359830662968553e-04  1.3798517003368220e-03  1.4633971106522193e-03  1.5077662496785777e-03  1.5763309639810739e-03  1.6017993060746683e-03  1.6549544638664664e-03  1.6301494012994063e-03  1.6587693693309146e-03  1.6068982879220992e-03  1.6463926865192069e-03  1.5976461921101855e-03  1.5408123333467913e-03  1.5379458609988158e-03  6.8566934795156098e-04  7.7817994486761974e-04  5.8769427222328595e-04  5.0777415085523853e-05  6.3443965547906327e-05  1.4002664174696709e-03  1.5242367969192472e-03  9.6487688268469631e-04  8.5357078200936547e-04  6.7065948471882637e-04  7.4130082250851634e-04  9.2289023851117999e-04  8.0980359031674264e-04  1.0108419363539416e-03  8.6940832557440176e-04  1.0407215123945620e-03  9.0411765607632051e-04  7.3446119173450799e-04  7.6731895815890098e-04  9.2893498091560999e-04  7.8511484574646164e-04  9.3078180922692309e-04  7.8005062689058503e-04  9.0743030501699710e-04  7.4923133031006928e-04  6.3008815253116251e-04  8.5917614346522756e-04  6.9124120011517117e-04  5.9611795764552089e-04  7.8302675841570289e-04  6.0719876342410170e-04  5.3102298712881741e-04  1.0982396047519200e-03  1.0250246679396227e-03  6.0938091626289257e-04  1.4964855064169749e-03  4.4070100683464423e-04  5.5974738528921631e-04  5.8946066791064550e-04  6.0611891378266672e-04  6.8200843378899171e-04  8.8862731466369442e-04  4.8602086639371441e-04  9.8801663988350424e-04  8.4019873457233363e-04  6.1948757402189474e-04  1.4622044510399707e-03  1.1701480988359891e-03  1.1961769147768612e-03  1.6279660044537065e-03  1.6983534104921226e-03  6.2470234570287939e-04  4.2498857506837465e-04  1.4418424515652108e-03  5.6016981338413424e-05  7.9730532450279247e-04  6.5846084444589963e-04  5.9672335738353093e-04  4.7314678868708035e-04  9.2398605588035244e-04  1.2873426187733200e-03  5.4996721787375046e-04  4.2099869016438578e-04  4.6780713541084236e-04  3.7388145510390856e-04  3.9731027458412638e-04  2.7245960140441939e-04  2.6898658646221313e-04  4.5121702447146431e-04  3.5767682159821955e-04  3.9903872757059708e-04  5.7274214118765217e-04  5.2364593995398855e-04  6.8385856594534980e-04  4.7352667121059214e-04  6.1547708371416832e-04  4.1139884288553290e-04  5.4141181715265793e-04  1.2054661363789343e-03  1.2063110696244081e-03  1.0790784674545942e-03  1.3153417616095159e-03  1.3095199439549213e-03  1.4051061390429039e-03  1.3990221597184288e-03  1.4767802499022790e-03  1.4790037885316762e-03  1.5396431392311761e-03  1.5432546566780374e-03  1.5937287229658387e-03  1.6027258439941510e-03  1.6417923399109932e-03  1.6514633631429937e-03  1.6844094021285303e-03  1.6904576527620862e-03  1.7187122630434866e-03  1.7206289345897271e-03  1.7449483488035935e-03  1.6367489398011036e-03  1.7285201833631108e-03  1.7526949759700443e-03  1.7643088966465522e-03  1.7722092508535997e-03  9.1059426387085543e-04  6.4326099391005787e-04  1.1276522103904586e-03  3.8002562591977292e-04  1.6188741826017015e-03  1.3628213575748080e-03  5.9127853349033425e-04  6.1234737990808325e-04  4.9073933751375383e-04  9.7237897889424245e-04  1.4009267028634658e-03  3.2852379282300982e-04  3.8106364176022624e-04  1.2342091756844076e-03  1.3051867236313871e-03  8.5055509596019358e-04  1.1840359597361720e-03  1.4699759793648064e-03  2.9090945688102406e-04  5.1182498486977777e-04  3.1075661166184431e-04  2.5061173353510617e-04  1.7011383269953421e-03  2.7348274668299475e-04  1.4566866696198795e-03  3.1084488364606800e-04  3.5302607531903719e-04  4.9304597282963727e-04  3.6905361524920270e-04  2.2935141672202110e-04  1.6595533480364068e-03  5.4121639943776538e-04  1.5794105030369444e-03  1.5418049517469787e-03  1.7298106457125728e-03  1.2157992275565624e-03  4.6604535856575473e-04  1.5974716132550611e-04  1.7009213615857763e-03  4.0364494295327600e-04  5.9202857399025222e-04  3.8996398555426619e-04  1.7792261427772346e-03  1.7008183260096277e-03  1.7005440890731579e-03  1.2872853436623850e-03  1.1786575328975410e-03  1.3363990320343537e-03  3.9453507652623918e-04  5.1201070750075690e-04  2.8999232108693513e-04  3.5830564835738011e-04  1.2205717323593372e-03  3.4464457386762639e-04  4.5893718254588745e-04  2.7810596176152351e-04  3.7204864991378104e-04  5.3385826094613212e-04  4.3200543218270863e-04  2.9069799972933325e-04  3.2557452035894666e-04  4.6233307872044254e-04  2.0964640670031296e-04  3.3627286599588599e-04  4.6295238505250066e-04  3.1184322528430484e-04  4.2992987083401813e-04  6.0611777551844849e-04  1.6854533416859139e-03  1.2729630325762132e-03  1.1869528888869569e-03  1.2296963029172065e-03  1.1187927538298772e-03  1.1873265980516634e-03  1.0826291253493965e-03  1.2159806252439458e-03  1.1905007536791817e-03  1.1421675117613565e-03  1.2719810519114462e-03  1.3176323537596724e-03  1.5495514669106529e-03  4.7090486894972881e-04  3.7457353383139733e-04  4.7929880188911990e-04  3.7684036264624260e-04  2.6876071799559310e-04  1.2679499414713655e-03  1.6227534819239651e-03  1.8450361695889663e-04  4.2728446988942104e-04  9.8444978961194818e-04  1.7323671267455311e-04  3.0931823962781168e-04  2.4990626408383107e-04  1.2094844168546642e-04  2.0064753522901026e-04  3.2283073407443288e-04  2.4000639592727937e-04  1.4476875157156785e-04  6.4553059599907004e-05  3.8023339098421880e-04  1.4485633826003558e-03  1.5476620152515357e-03  1.5448617253185999e-03  1.2782935081286234e-03  2.6188347453970741e-04  1.3519321687331806e-03  7.9568425880362508e-04  8.3893518232567416e-04  1.4251366650888792e-03  1.3943221758035199e-03  1.4731195832546576e-03  1.3445741221537616e-03  1.4943229705830729e-03  1.5040317973600823e-03  1.6125934740293438e-03  1.5900029448587820e-03  1.6146294319485900e-03  1.4930854047677283e-03  1.6031919234917498e-03  1.6872189789622746e-03  1.4652984907511195e-03  1.7245208524863539e-03  1.6821980521436882e-03  1.7480890752891256e-03  1.1518256571697019e-04  3.7082109365818859e-04  1.6332037403731798e-03  1.1644743563198430e-03  1.3293071851845769e-03  1.5637097585196892e-04  5.8437485653660957e-04  2.1025068526669440e-04  2.2097625514513338e-04  5.9840647647560507e-04  5.5306181811604126e-04  2.2080147858335954e-04  2.0913107326262807e-04  3.4668191011459414e-04  1.0684693317901210e-03  1.4300161679322084e-03  1.4198368028771203e-03  1.3418117426360278e-03  1.3451940265050877e-03  1.6784369084752305e-03  1.0635766531015392e-04  1.8570098843729763e-04  4.2699787525613274e-04  1.3332500656241303e-03  1.9240295745069489e-04  3.8888737431252247e-04  3.6194068108561764e-04  1.5183814963865331e-04  1.7378665639046741e-03  3.5080092147181933e-04  1.1871737487339352e-03  1.6953761110216805e-03  1.8246066891067109e-04  1.8514473530493832e-04  1.6954513095174511e-04  6.5665286423325633e-04  1.5226885412377737e-03  9.2703487225683149e-05  1.2055819747148195e-03  7.0851266850293694e-04  2.2402293196046292e-04  1.0374848341403562e-03  6.5185171272539533e-05  7.7694380200514002e-04  3.8062073943913869e-04  8.7665974586853651e-05  1.1065200290883692e-04  2.6883173883519309e-04  1.8704660046559769e-04  1.2152154510823719e-04  1.2749933970827808e-03  1.0805686436648912e-03  8.2620464523112654e-04  1.6533726891459334e-03  1.0035561240954623e-03  7.5102625675687855e-05  1.8964406050554821e-04  2.1016705770347867e-04  1.3731958857083066e-03  8.9402746325304133e-04  1.5295062327696548e-03  1.2321768163206311e-04  2.0663372306716857e-04  2.1977899486854717e-04  3.9498490177610217e-04  6.2025786338626627e-04  8.0321344355311567e-04  1.8138098497234571e-04  1.3679669821012863e-03  7.7073309249877709e-04  1.7320815485079937e-03  1.7021057757557810e-03  1.3614338805990871e-03  6.1670393526589839e-04  1.0567248536979814e-03  4.2257259004142232e-04  1.5915257685159335e-03  6.2908026724627184e-04  9.0328891508149086e-04  1.6999183659833783e-03  3.9598737165087234e-04  5.7104811826594716e-04  8.1170739996346626e-04  7.6072742671299707e-04  1.2834285706836400e-03  8.6245533103960343e-04  1.4191481299991341e-03  9.5826314381869079e-04  1.3647271898185578e-03  3.4111071173694547e-04  3.6886020446756526e-04  1.5623721262255467e-03  1.2471082313274978e-03  1.1278293016997194e-03  1.7471843952604421e-03  1.7650307016898246e-03  1.7855230207715221e-03  1.6709045604287978e-04  2.1592674711392646e-04  3.9502368765783539e-04  1.0061446493660918e-03  1.2309112523612847e-04  5.1628394735460411e-05  2.3684751432780801e-04  8.5923510154110495e-05  4.7238212748604450e-05  6.8504310076112664e-04  1.5443417993422459e-04  1.6244309438173681e-03  1.9056614554369185e-04  6.8101988178273065e-04  1.6527929560691186e-03  1.7916636589947496e-03  1.3326585435671115e-03  1.3937081197448189e-03  1