<?xml version="1.0"?>
<VTKFile type="UnstructuredGrid"  version="0.1"  >
<UnstructuredGrid>
<Piece  NumberOfPoints="1183" NumberOfCells="2268">
<Points>
<DataArray  type="Float64"  NumberOfComponents="3"  format="ascii">0 0 0  0 1 0  1 1 0  1 0 0  1.1 -0.1 0  -0.1 -0.1 0  1.1 1.1 0  -0.1 1.1 0  0.5001907942797842 0.5001424792557062 0  0.2394388717784185 0.5458585445431327 0  0 0.9499999999997918 0  0 0.8999999999995836 0  0 0.8499999999996529 0  0 0.7999999999999998 0  0 0.7500000000003466 0  0 0.7000000000006934 0  0 0.6500000000010401 0  0 0.6000000000013869 0  0 0.5500000000017335 0  0 0.5000000000020587 0  0 0.4500000000018723 0  0 0.4000000000016644 0  0 0.3500000000014564 0  0 0.3000000000012483 0  0 0.2500000000010403 0  0 0.2000000000008322 0  0 0.1500000000006241 0  0 0.100000000000416 0  0 0.05000000000020799 0  0.04999999999989965 0 0  0.09999999999981467 0 0  0.1499999999997036 0 0  0.1999999999995579 0 0  0.2499999999994121 0 0  0.2999999999992664 0 0  0.3499999999991206 0 0  0.3999999999989749 0 0  0.4499999999988292 0 0  0.4999999999986943 0 0  0.5499999999988151 0 0  0.5999999999989468 0 0  0.6499999999990784 0 0  0.69999999999921 0 0  0.7499999999993417 0 0  0.7999999999994734 0 0  0.8499999999996051 0 0  0.8999999999997368 0 0  0.9499999999998684 0 0  1 0.04999999999989965 0  1 0.09999999999981467 0  1 0.1499999999997036 0  1 0.1999999999995579 0  1 0.2499999999994121 0  1 0.2999999999992664 0  1 0.3499999999991206 0  1 0.3999999999989749 0  1 0.4499999999988292 0  1 0.4999999999986943 0  1 0.5499999999988151 0  1 0.5999999999989468 0  1 0.6499999999990784 0  1 0.69999999999921 0  1 0.7499999999993417 0  1 0.7999999999994734 0  1 0.8499999999996051 0  1 0.8999999999997368 0  1 0.9499999999998684 0  0.9499999999997918 1 0  0.8999999999995836 1 0  0.8499999999996529 1 0  0.7999999999999998 1 0  0.7500000000003466 1 0  0.7000000000006934 1 0  0.6500000000010401 1 0  0.6000000000013869 1 0  0.5500000000017335 1 0  0.5000000000020587 1 0  0.4500000000018723 1 0  0.4000000000016644 1 0  0.3500000000014564 1 0  0.3000000000012483 1 0  0.2500000000010403 1 0  0.2000000000008322 1 0  0.1500000000006241 1 0  0.100000000000416 1 0  0.05000000000020799 1 0  -0.1 1.05000000000004 0  -0.1 1.000000000000079 0  -0.1 0.9500000000001624 0  -0.1 0.9000000000003032 0  -0.1 0.850000000000444 0  -0.1 0.8000000000005848 0  -0.1 0.7500000000007256 0  -0.1 0.7000000000008665 0  -0.1 0.6500000000010508 0  -0.1 0.6000000000012352 0  -0.1 0.5500000000014196 0  -0.1 0.500000000001539 0  -0.1 0.4500000000014195 0  -0.1 0.4000000000013 0  -0.1 0.3500000000011588 0  -0.1 0.3000000000010178 0  -0.1 0.2500000000008986 0  -0.1 0.2000000000007579 0  -0.1 0.1500000000006174 0  -0.1 0.1000000000005272 0  -0.1 0.05000000000040083 0  -0.1 2.671196597248127e-13 0  -0.1 -0.0499999999998666 0  -0.0500000000000906 -0.1 0  -1.730560139634463e-13 -0.1 0  0.04999999999975802 -0.1 0  0.09999999999961506 -0.1 0  0.1499999999994613 -0.1 0  0.199999999999302 -0.1 0  0.2499999999991446 -0.1 0  0.2999999999990088 -0.1 0  0.3499999999988296 -0.1 0  0.3999999999986936 -0.1 0  0.4499999999985143 -0.1 0  0.4999999999984002 -0.1 0  0.5499999999985247 -0.1 0  0.5999999999986493 -0.1 0  0.6499999999987955 -0.1 0  0.6999999999989417 -0.1 0  0.7499999999990659 -0.1 0  0.7999999999992116 -0.1 0  0.8499999999993573 -0.1 0  0.8999999999994526 -0.1 0  0.949999999999584 -0.1 0  0.9999999999997226 -0.1 0  1.049999999999861 -0.1 0  1.1 -0.0500000000000906 0  1.1 -1.730560139634463e-13 0  1.1 0.04999999999975802 0  1.1 0.09999999999961506 0  1.1 0.1499999999994613 0  1.1 0.199999999999302 0  1.1 0.2499999999991446 0  1.1 0.2999999999990088 0  1.1 0.3499999999988296 0  1.1 0.3999999999986936 0  1.1 0.4499999999985143 0  1.1 0.4999999999984002 0  1.1 0.5499999999985247 0  1.1 0.5999999999986493 0  1.1 0.6499999999987955 0  1.1 0.6999999999989417 0  1.1 0.7499999999990659 0  1.1 0.7999999999992116 0  1.1 0.8499999999993573 0  1.1 0.8999999999994526 0  1.1 0.949999999999584 0  1.1 0.9999999999997226 0  1.1 1.049999999999861 0  1.05000000000004 1.1 0  1.000000000000079 1.1 0  0.9500000000001624 1.1 0  0.9000000000003032 1.1 0  0.850000000000444 1.1 0  0.8000000000005848 1.1 0  0.7500000000007256 1.1 0  0.7000000000008665 1.1 0  0.6500000000010508 1.1 0  0.6000000000012352 1.1 0  0.5500000000014196 1.1 0  0.500000000001539 1.1 0  0.4500000000014195 1.1 0  0.4000000000013 1.1 0  0.3500000000011588 1.1 0  0.3000000000010178 1.1 0  0.2500000000008986 1.1 0  0.2000000000007579 1.1 0  0.1500000000006174 1.1 0  0.1000000000005272 1.1 0  0.05000000000040083 1.1 0  2.671196597248127e-13 1.1 0  -0.0499999999998666 1.1 0  0.2468698418351475 0.5748981713547502 0  0.2592022653227397 0.6020047501615469 0  0.2749508027239336 0.6272752789964771 0  0.294319780429723 0.6497722582430078 0  0.3168026847527612 0.6689494384835394 0  0.3407270852163303 0.6861781102292684 0  0.3657826026513812 0.7017657041160601 0  0.3921501236318445 0.715102740446084 0  0.4196114290308743 0.7260141366085334 0  0.4479519909697851 0.7345354273177293 0  0.4769389247876589 0.7404791338849812 0  0.5062564771101661 0.7441507925514776 0  0.5359037460356005 0.7453546416446117 0  0.5655665740743524 0.7422817969104245 0  0.594269934755857 0.7341939026623029 0  0.6217011629152595 0.7223898131183739 0  0.647271902800048 0.7071286718464814 0  0.6705212778073074 0.6884838784107987 0  0.6912854118574878 0.6671466455526562 0  0.7091620767940119 0.6434105920882645 0  0.7236451679174879 0.6173723083590281 0  0.734734565883013 0.5896947613637417 0  0.7422559419902064 0.5608850838498181 0  0.7452420541841359 0.5312279617868525 0  0.7440240712660369 0.5015654011577466 0  0.7400636113283785 0.4721592871095328 0  0.7335101631174268 0.4433146022280397 0  0.7242957489346209 0.4152107490331649 0  0.7129293646632853 0.3879390425657402 0  0.699495260227639 0.3616386308239271 0  0.6837924767452721 0.3366518289431476 0  0.6662177238243738 0.3130059793458331 0  0.6465716874786351 0.2908936470457352 0  0.6236725099342856 0.2719834952564172 0  0.5980046629502489 0.2568691635869984 0  0.5705117270376623 0.2453541503292825 0  0.5413322963331308 0.2385641356953176 0  0.5114634642831707 0.2390763291797582 0  0.4824653417143457 0.245351959165543 0  0.4543139237023148 0.254394131577337 0  0.4270740639949192 0.2659475883873622 0  0.4013412035580949 0.2802841541525719 0  0.3766746649726893 0.2964708517449748 0  0.3533496276714667 0.314606320705644 0  0.3316398899831867 0.3346770368675268 0  0.3117922474840816 0.3565196591989528 0  0.2938361823411605 0.3799827026237306 0  0.2779821883727174 0.4049033449465632 0  0.2641348265499948 0.4309796467753441 0  0.2531728561034284 0.4584320556554739 0  0.2448738712263456 0.4868464165343648 0  0.2393688090488051 0.5159446524404459 0  0.2635335299125056 0.5067242769376201 0  0.320616871843159 0.6404315702840799 0  0.5017504415093964 0.2688202836451781 0  0.6385416598759859 0.3171474322503375 0  0.3899242005516436 0.6863989911062747 0  0.685010476382518 0.3864232357783434 0  0.7114181374402153 0.4636148754363736 0  0.7141659846832061 0.5719244839994604 0  0.6596382014528165 0.6628743322801171 0  0.5783687627577652 0.7155784879696583 0  0.4677697829820812 0.7120046587262635 0  0.427521580710899 0.2955656183024907 0  0.3587637079792335 0.342940688632777 0  0.3072007787779408 0.4048068378563432 0  0.5751971400965611 0.2734910499066723 0  0.2751983271163051 0.577832677481507 0  0.2818423238934807 0.4532348021577946 0  0.6946577502151371 0.614812417814698 0  0.6198830318146332 0.6928200261243395 0  0.7190528880388142 0.5185347090756313 0  0.5219676825880519 0.7197571331764494 0  0.4022952493872932 0.3097667148720294 0  0.4277957198550017 0.3248630813143062 0  0.4540872190243836 0.3091724145118417 0  0.4558406828014985 0.3392686815562924 0  0.427271497183005 0.3547991973049811 0  0.4556068434053021 0.366285290327776 0  0.431342260736791 0.3921869366345605 0  0.483875020476272 0.3556865477483601 0  0.4835273676466944 0.3962613784013759 0  0.5246131899249724 0.3646535866229801 0  0.447198293579989 0.4307624277805759 0  0.4081550925334432 0.434399589918069 0  0.5205291849766166 0.3276707230590195 0  0.5598809592974704 0.3535391540708892 0  0.5761318374031482 0.3854610248199312 0  0.5549116417141755 0.3128430197948097 0  0.4366579106967924 0.4789400013634024 0  0.3657584727374978 0.472855885363034 0  0.3947974262041958 0.5226993255167511 0  0.3445862045228522 0.5187504086052259 0  0.3613073557692478 0.5684694006835888 0  0.4116269313875019 0.5701329543347823 0  0.3882090491450652 0.606650576542601 0  0.4290423903385853 0.617863598737085 0  0.459125108626558 0.5784091864701122 0  0.4673991526423686 0.6229240954619458 0  0.506723054799892 0.5932688867417852 0  0.5273931489782867 0.6264025217298473 0  0.5585923490806335 0.6011223212529859 0  0.5838717274218466 0.6362487601949545 0  0.6039697633247053 0.6060645360429858 0  0.5976096547577292 0.563926444580638 0  0.632485864786571 0.5646901406498989 0  0.6282404408321165 0.5233627741746647 0  0.5491276220577876 0.6709366528686478 0  0.6172727404386269 0.6371422520235229 0  0.4434293868504621 0.656611390215412 0  0.4892080184492901 0.6716564354312291 0  0.6060570181907018 0.3628676338211461 0  0.6065046983600584 0.4065359122885147 0  0.5856305723179523 0.4349809086191882 0  0.6330692158806184 0.3758975531676103 0  0.594799240215386 0.3306480806288818 0  0.582055660478682 0.5135583038641602 0  0.6242887926419567 0.4499383453834868 0  0.6496833417746164 0.4302417982712823 0  0.6586303008592631 0.4596350561889854 0  0.6785423124260628 0.4338458132799154 0  0.3981558869491177 0.368865474948696 0  0.4021790367023237 0.6397833563085392 0  0.3692057898499573 0.6402066209494119 0  0.3545825222224476 0.6102078856211192 0  0.3287509714524215 0.5767114205510486 0  0.6704843970369471 0.5357906388635668 0  0.6735950947212145 0.570726269587024 0  0.6415880825619729 0.6138742192810603 0  0.5978361565068656 0.6679471558084296 0  0.3248849172652108 0.4755647031173423 0  0.3476236627388578 0
[...]
<PointData  Scalars="u"> 
<DataArray  type="Float64"  Name="u"  format="ascii">0.0000000000000000e+00  0.0000000000000000e+00  0.0000000000000000e+00  0.0000000000000000e+00  0.0000000000000000e+00  0.0000000000000000e+00  0.0000000000000000e+00  0.0000000000000000e+00  7.2858603156280877e-01  3.7930158039702078e-01  0.0000000000000000e+00  0.0000000000000000e+00  0.0000000000000000e+00  0.0000000000000000e+00  0.0000000000000000e+00  0.0000000000000000e+00  0.0000000000000000e+00  0.0000000000000000e+00  0.0000000000000000e+00  0.0000000000000000e+00  0.0000000000000000e+00  0.0000000000000000e+00  0.0000000000000000e+00  0.0000000000000000e+00  0.0000000000000000e+00  0.0000000000000000e+00  0.0000000000000000e+00  0.0000000000000000e+00  0.0000000000000000e+00  0.0000000000000000e+00  0.0000000000000000e+00  0.0000000000000000e+00  0.0000000000000000e+00  0.0000000000000000e+00  0.0000000000000000e+00  0.0000000000000000e+00  0.0000000000000000e+00  0.0000000000000000e+00  0.0000000000000000e+00  0.0000000000000000e+00  0.0000000000000000e+00  0.0000000000000000e+00  0.0000000000000000e+00  0.0000000000000000e+00  0.0000000000000000e+00  0.0000000000000000e+00  0.0000000000000000e+00  0.0000000000000000e+00  0.0000000000000000e+00  0.0000000000000000e+00  0.0000000000000000e+00  0.0000000000000000e+00  0.0000000000000000e+00  0.0000000000000000e+00  0.0000000000000000e+00  0.0000000000000000e+00  0.0000000000000000e+00  0.0000000000000000e+00  0.0000000000000000e+00  0.0000000000000000e+00  0.0000000000000000e+00  0.0000000000000000e+00  0.0000000000000000e+00  0.0000000000000000e+00  0.0000000000000000e+00  0.0000000000000000e+00  0.0000000000000000e+00  0.0000000000000000e+00  0.0000000000000000e+00  0.0000000000000000e+00  0.0000000000000000e+00  0.0000000000000000e+00  0.0000000000000000e+00  0.0000000000000000e+00  0.0000000000000000e+00  0.0000000000000000e+00  0.0000000000000000e+00  0.0000000000000000e+00  0.0000000000000000e+00  0.0000000000000000e+00  0.0000000000000000e+00  0.0000000000000000e+00  0.0000000000000000e+00  0.0000000000000000e+00  0.0000000000000000e+00  0.0000000000000000e+00  0.0000000000000000e+00  0.0000000000000000e+00  0.0000000000000000e+00  0.0000000000000000e+00  0.0000000000000000e+00  0.0000000000000000e+00  0.0000000000000000e+00  0.0000000000000000e+00  0.0000000000000000e+00  0.0000000000000000e+00  0.0000000000000000e+00  0.0000000000000000e+00  0.0000000000000000e+00  0.0000000000000000e+00  0.0000000000000000e+00  0.0000000000000000e+00  0.0000000000000000e+00  0.0000000000000000e+00  0.0000000000000000e+00  0.0000000000000000e+00  0.0000000000000000e+00  0.0000000000000000e+00  0.0000000000000000e+00  0.0000000000000000e+00  0.0000000000000000e+00  0.0000000000000000e+00  0.0000000000000000e+00  0.0000000000000000e+00  0.0000000000000000e+00  0.0000000000000000e+00  0.0000000000000000e+00  0.0000000000000000e+00  0.0000000000000000e+00  0.0000000000000000e+00  0.0000000000000000e+00  0.0000000000000000e+00  0.0000000000000000e+00  0.0000000000000000e+00  0.0000000000000000e+00  0.0000000000000000e+00  0.0000000000000000e+00  0.0000000000000000e+00  0.0000000000000000e+00  0.0000000000000000e+00  0.0000000000000000e+00  0.0000000000000000e+00  0.0000000000000000e+00  0.0000000000000000e+00  0.0000000000000000e+00  0.0000000000000000e+00  0.0000000000000000e+00  0.0000000000000000e+00  0.0000000000000000e+00  0.0000000000000000e+00  0.0000000000000000e+00  0.0000000000000000e+00  0.0000000000000000e+00  0.0000000000000000e+00  0.0000000000000000e+00  0.0000000000000000e+00  0.0000000000000000e+00  0.0000000000000000e+00  0.0000000000000000e+00  0.0000000000000000e+00  0.0000000000000000e+00  0.0000000000000000e+00  0.0000000000000000e+00  0.0000000000000000e+00  0.0000000000000000e+00  0.0000000000000000e+00  0.0000000000000000e+00  0.0000000000000000e+00  0.0000000000000000e+00  0.0000000000000000e+00  0.0000000000000000e+00  0.0000000000000000e+00  0.0000000000000000e+00  0.0000000000000000e+00  0.0000000000000000e+00  0.0000000000000000e+00  0.0000000000000000e+00  0.0000000000000000e+00  0.0000000000000000e+00  0.0000000000000000e+00  0.0000000000000000e+00  0.0000000000000000e+00  0.0000000000000000e+00  0.0000000000000000e+00  0.0000000000000000e+00  0.0000000000000000e+00  0.0000000000000000e+00  0.0000000000000000e+00  3.8201959733368834e-01  3.8730989629517565e-01  3.9261701507852093e-01  3.9995964965935937e-01  4.0932651150852728e-01  4.1609712839950974e-01  4.1952566676023528e-01  4.2130895300931887e-01  4.2153204657076732e-01  4.2038447239008214e-01  4.1769403364232849e-01  4.1292552598641002e-01  4.0614472151097086e-01  4.0123283641452168e-01  3.9961300603696281e-01  3.9922547530998770e-01  3.9899424467248362e-01  3.9947321107218225e-01  4.0017191382398987e-01  4.0029579037430146e-01  4.0078237847779929e-01  4.0171050958588050e-01  4.0328692830321561e-01  4.0731306742286105e-01  4.1287807476913585e-01  4.1764055416195350e-01  4.2032320724173006e-01  4.2217421430730867e-01  4.2174003744626670e-01  4.1907530495625034e-01  4.1471285335569935e-01  4.0780364011435344e-01  3.9857726690939138e-01  3.9136100444654814e-01  3.8672816482523270e-01  3.8160770248509013e-01  3.7933602572513364e-01  3.8515778700228720e-01  3.9605718167834664e-01  4.0502775164448263e-01  4.1296571646607239e-01  4.1986468932777299e-01  4.2434701067953134e-01  4.2658255019067159e-01  4.2704049892249052e-01  4.2583236203135910e-01  4.2318245025853296e-01  4.1843571336200641e-01  4.1165443608414198e-01  4.0433539368257099e-01  3.9538147902842991e-01  3.8493653077682055e-01  4.4828765241296809e-01  4.6722100435124408e-01  4.6125687981307950e-01  4.6427631679135611e-01  4.8479389579299659e-01  4.8385299656842384e-01  4.8700861106515397e-01  4.6698956208674580e-01  4.6637312731133035e-01  4.5965235338931820e-01  4.8718947646934996e-01  4.8387160912451260e-01  4.9094341282227261e-01  4.8536086635813763e-01  4.4793857392281072e-01  4.4917464795588746e-01  4.7287190237508336e-01  4.6959165365649913e-01  4.6807069509028298e-01  4.7717172737404001e-01  4.7533963375390414e-01  4.8781959794895541e-01  5.3987835730551414e-01  5.2910108437766645e-01  5.8318683005024896e-01  5.8840097947128289e-01  6.2335890694426510e-01  6.4174383298585647e-01  6.1903567655131830e-01  6.7172676817332722e-01  6.3316247948015614e-01  6.8704579895725471e-01  6.6045228070882200e-01  5.7559862058577627e-01  6.0095096646519186e-01  6.3288157245603660e-01  5.3734572652868307e-01  7.0666828161157080e-01  6.3299081813827829e-01  6.7003201748371966e-01  6.0455432700550404e-01  6.0850928757067868e-01  6.6330082657629852e-01  6.0581585073574729e-01  6.2995375257548425e-01  6.8720250116755199e-01  6.4303638232159344e-01  6.8298485135942055e-01  6.3997879855108142e-01  6.5849260026190548e-01  5.9634760810246534e-01  6.1476451134729659e-01  6.5876476724864519e-01  6.1494923810162738e-01  6.4035064660422347e-01  5.6353745583132742e-01  5.6177237719496265e-01  5.8240441327946146e-01  5.7230216197378736e-01  5.7498003306689727e-01  6.2358043996582857e-01  6.6877923558136876e-01  5.5770768391918424e-01  5.3886550455348847e-01  6.9130927935826458e-01  6.3358699733026269e-01  5.8484437817828350e-01  5.8709572825972944e-01  5.3776236908855035e-01  5.8080860422591873e-01  5.7658886437529000e-01  5.3968983856310626e-01  5.5884802235863051e-01  5.5083584475630298e-01  5.7031992779172558e-01  5.4657566384078371e-01  5.5960500809627500e-01  5.3542338441046800e-01  5.6645412263827899e-01  5.8365635625022616e-01  5.3925630839713756e-01  5.8348643069658768e-01  5.2600409481624177e-01  5.6433152992464897e-01  5.0451463980375522e-01  5.2511933383676102e-01  4.8402708024376284e-01  5.1314904514164850e-01  5.4508764918618602e-01  5.4021694667899800e-01  5.9366579028510102e-01  5.3888523403111310e-01  5.5085517174316756e-01  6.8914022565885125e-01  7.1251320834469867e-01  4.8240443380716957e-01  5.3307581501754331e-01  4.7495726051100556e-01  4.8550815860291413e-01  4.8100748159716200e-01  4.7316248159750818e-01  5.2288291687461919e-01  4.8957856674798927e-01  5.5242627112836185e-01  4.7891117407517048e-01  4.8781273374603040e-01  5.4090315930334243e-01  4.8754680175641740e-01  4.8623316838891328e-01  5.4099553853860893e-01  4.8360784832338816e-01  6.1659147052499508e-01  4.6130640779866655e-01  5.1652208388853393e-01  7.0687271984364908e-01  5.1864572401911757e-01  5.0411019642038057e-01  4.9229061774953770e-01  4.8572885143403016e-01  4.7034324049178711e-01  5.2505372948301754e-01  4.8644719402680026e-01  5.2322421600976621e-01  4.5314548791305420e-01  4.5202990603289739e-01  5.0723910621336821e-01  5.2203935330556095e-01  4.5436627713561889e-01  4.8002810710860322e-01  4.8997463399741459e-01  5.2197861596725059e-01  4.7057375733623313e-01  5.0407678571336068e-01  4.9663079683755068e-01  4.4279210299177568e-01  4.8817993503531454e-01  6.3166688695236750e-01  4.5008700732254370e-01  4.6413676542716376e-01  4.4525645440490846e-01  4.4044355567225885e-01  7.1505933634555152e-01  5.2646775552905523e-01  5.8619283189836380e-01  5.3831481139845627e-01  5.3068570327964792e-01  5.6541965869382971e-01  6.0573408078260726e-01  5.4282182088676323e-01  5.1491080476011197e-01  5.2747276079806227e-01  4.5157774805011913e-01  5.6673732281211076e-01  5.3271025005639783e-01  4.3450702088935772e-01  4.5189330486326046e-01  5.3221289017865392e-01  4.9430088334102257e-01  5.2983196059460336e-01  6.7610320397958334e-01  5.3901075533833176e-01  5.7160479329608604e-01  5.1045623209224433e-01  5.1495437808066047e-01  5.1723039800446657e-01  5.3561901605794859e-01  4.3304089584505767e-01  5.8136470518943717e-01  4.9506632107860010e-01  7.1529815557449838e-01  6.2537955851805704e-01  5.7948665850283709e-01  6.1558144127282943e-01  7.1382299482864653e-01  4.9256185926358820e-01  5.8051271544938354e-01  6.2205427369111121e-01  5.8435620092100860e-01  5.9352485756846018e-01  5.3461109903417814e-01  4.4485005913729697e-01  5.5758812074807174e-01  5.7103306556004063e-01  5.8649093354757520e-01  5.3468755547242397e-01  5.7796600534617848e-01  5.9723610099836999e-01  6.0192062024800219e-01  5.5953228602337657e-01  5.7946366750543388e-01  6.0025044189823407e-01  3.5420722469216032e-01  3.7597694982900826e-01  3.5248471243402002e-01  3.5079244159306655e-01  3.6880350435153536e-01  3.3678718770406907e-01  3.6848005938267681e-01  3.6829598014250503e-01  3.3970119969052021e-01  3.6059764028265678e-01  3.3105507147346497e-01  3.3056691059496063e-01  3.5359363257326254e-01  3.5587700116281284e-01  3.4951032798026821e-01  1.2933466938024595e-02  3.5404201609188996e-01  3.6338894873380273e-01  3.6638841368520542e-01  1.3534325575041391e-02  1.4223357362650266e-02  3.4914945254750979e-01  1.2403634815710839e-02  1.2143694973890253e-02  1.3214105927270341e-02  1.3879704490749167e-02  3.3933455608780033e-01  1.9006232070700527e-02  2.9093313321102716e-02  2.8830543435106853e-02  2.6968377087416992e-02  2.7734135323561688e-02  2.5305270198892810e-02  2.7019329709574356e-02  3.1841796171352951e-02  2.8394574014076461e-02  3.3976404606764293e-02  2.8287410166199293e-02  3.5558726256292410e-02  3.2802475657623814e-02  7.2742221247664753e-03  2.4042152271530229e-03  2.8143639925157422e-03  2.9032494514119752e-03  2.4834347083835134e-03  2.9067680977089344e-03  3.5169397886109658e-03  2.6776226234830340e-03  -8.9902819105988619e-04  3.3262800515722329e-01  2.8755826843648225e-01  2.8535563711071399e-01  2.4706205802245737e-01  2.4073775671689734e-01  2.4871584932441912e-01  2.0859524307903915e-01  2.0963920057164467e-01  1.6807494669807246e-01  1.6670375853744940e-01  2.0812377461896522e-01  1.6278563842886615e-01  2.0003227117230318e-01  1.5456101402445674e-01  1.8709608405122452e-01  1.4263797494642141e-01  1.7044591151044511e-01  1.2656468622057887e-01  1.4976272021131443e-01  1.0815177527120980e-01  1.2604750875823745e-01  1.7092864174915873e-01  1.4174304905407170e-01  1.1438533519096172e-01  8.7747684951203539e-02  7.2253260240863454e-02  1.8697293243372320e-01  1.5411190582512188e-01  1.1196825484176111e-01  1.9786287214119308e-01  1.6206646232102090e-01  2.1550922984651216e-01  1.6570045757820684e-01  2.0895876874707020e-01  1.6584850391756292e-01  2.0589196803255011e-01  1.5945459549762453e-01  1.9407494488506277e-01  5.6118680936040978e-02  1.4666532203099411e-01  1.8096321893038159e-01  1.3241547725446393e-01  1.6326117304547449e-01  1.1123432242989238e-01  1.2704528046640126e-01  2.2303069170644169e-01  1.2550617436978811e-01  4.2183217992925577e-02  5.6059637859190443e-02  1.6865648776086478e-01  1.2747371553926187e-01  1.2595905809554372e-01  1.1515021668950907e-01  1.4205417580588944e-01  1.9225401993629182e-01  1.6639348335666229e-01  1.2067101952449956e-01  1.4029531857773653e-01  9.8213314913357566e-02  1.1412306142160143e-01  1.5721779542350622e-01  1.2649674356606708e-01  1.6975740631215641e-01  1.3458444740954961e-01  9.7061105335803144e-02  1.0173356137535965e-01  1.4497596958884784e-01  1.0326094800056745e-01  1.3623032937249471e-01  9.7342542725527101e-02  1.2883264152553747e-01  7.0209285970595559e-02  1.7231009948464460e-01  1.6165330352939616e-01  8.7510611572031452e-02  7.1311276506063309e-02  2.1284682448104533e-01  2.1957663036757955e-01  7.6320640173826573e-02  2.1586311281856729e-01  1.9398476350777499e-01  1.4720496664102350e-01  1.7567130810631654e-01  1.2807900470369557e-01  1.5256949995714464e-01  1.0564073500329475e-01  1.2739042602585962e-01  1.7503685739564950e-01  1.4602747430335633e-01  2.0426891334037431e-01  1.6348500230963081e-01  2.1570939347503693e-01  1.7652328210760679e-01  2.3327391275437928e-01  1.8576321823061820e-01  2.3329991294692667e-01  1.8843648156694154e-01  1.4518950819687493e-01  1.4890607645746867e-01  1.8710579130074781e-01  1.4601764053720062e-01  1.8100130069739936e-01  1.3872548689674996e-01  1.7068810391844483e-01  1.2737959384101302e-01  1.5555014874336631e-01  1.1365663092100022e-01  1.3592941421200555e-01  8.9994032841166402e-02  1.1295451319315082e-01  1.8082259942027007e-01  1.5738060741662038e-01  1.1367806298690430e-01  1.2985428941430607e-01  7.7236985979452333e-02  5.8624812352755566e-02  8.9130749332648807e-02  1.7698909123061540e-01  1.4425611314290712e-01  1.3424361027283541e-01  6.7531200269455069e-02  2.2085281536542517e-01  2.2427026339480263e-01  1.9904275215086564e-01  1.5541535219095054e-01  2.0331242701887464e-01  1.6081183879715819e-01  2.1186576584289127e-01  1.6042606270866835e-01  2.0563359381664134e-01  1.5522751914865543e-01  2.0670941295122400e-01  1.4937024986553182e-01  1.8799333299116039e-01  1.3790728589140680e-01  1.6722466870899039e-01  1.2314806203186947e-01  1.4775609089775804e-01  1.0614964063561345e-01  1.2891374501432135e-01  1.8069743443782760e-01  1.4922297703687001e-01  1.0695697441532415e-01  1.2246842667654179e-01  1.6705364034537973e-01  1.3545130644466055e-01  9.6670240768225182e-02  1.0490513983039086e-01  1.4417001794424944e-01  1.1047148175242581e-01  1.4808067942474593e-01  7.1550557308668786e-02  1.8771149212359800e-01  1.9033656925040213e-01  1.4793921038719127e-01  1.8810771691717634e-01  1.4383830092952249e-01  1.0956096111321953e-01  1.8014892109494779e-01  1.3487732291586951e-01  6.3692083160166363e-02  4.4528943831842381e-02  2.3217754985367892e-01  1.7233744624356254e-01  1.2095895172576940e-01  2.3436966787348940e-01  2.2584979292541421e-01  2.5972166199945873e-01  1.1557068872484992e-01  2.5859620884919304e-01  2.2481630874353789e-01  4.0727951611630266e-02  4.9200726866722666e-02  2.3066187331151103e-01  2.1786953516751309e-01  2.2333709833537818e-01  1.0784902170492697e-01  2.5982424279713850e-01  8.3933050657914079e-02  4.8242871244310960e-02  2.3263495173724683e-01  2.7998857623722978e-01  2.7114858410223508e-01  8.2386420364303242e-02  2.7358838296993077e-01  3.1180612473846139e-02  6.7982795150788963e-02  3.1087087852955601e-02  2.4546745977388379e-01  2.2376114848058049e-01  3.6945203246380752e-02  2.3365303361702856e-02  5.3678054356719657e-02  6.8611291848610242e-02  6.5009554865843783e-02  4.3810384508289155e-02  4.6678941553804441e-02  2.6025920484443944e-02  2.6600293240316607e-02  2.6259965951432679e-01  7.5940489743658357e-02  5.5089818166434788e-02  6.1820498173254614e-02  9.5085610977188748e-02  2.7007975680091878e-01  4.6765857156832707e-02  2.7867435981765715e-01  2.7932961212144991e-01  3.2366178126011491e-01  3.0640178680120678e-01  8.8275795210896499e-02  7.6406559613207678e-02  2.5460021880007849e-01  2.3116043704068337e-01  2.5958872408559375e-01  2.7873120719033562e-01  3.2133913785831186e-01  6.5564646233697482e-02  2.2854412276170591e-02  2.6402438434842512e-01  3.0411316472280520e-01  2.2542479644846861e-01  2.9654831374738877e-01  4.4735124808228929e-02  4.6965220571643304e-02  2.4451427407482845e-01  4.7526079369334805e-02  1.4205413158470181e-01  3.1345821020576980e-01  3.0293388815930017e-01  2.6363123958852003e-01  2.9456752738878111e-01  2.5277062180888926e-01  2.8397701215165649e-01  3.2775852063546723e-01  3.3165045212484684e-01  2.2703285112432903e-02  2.0565659510924185e-02  2.6710352963078665e-01  2.9377413648560435e-01  2.7161982127636092e-01  8.9995789010768379e-02  9.0396646149580789e-02  9.5686250021028818e-02  4.0937770716802921e-02  6.8883071396612011e-02  4.6987509700964922e-02  9.0844214195585263e-02  7.3693431050074282e-02  7.5179444364340653e-02  5.2460236172071621e-02  3.4202535764917674e-01  3.0468361067644656e-01  3.1156166164762489e-01  2.9284151930721330e-01  2.6870402284636108e-01  3.4560445874449897e-01  3.0448898252608475e-01  3.0867920583430780e-01  3.1446530731505290e-01  2.7355576696665069e-02  2.8436947222207659e-01  2.8649161305860421e-01  6.6446305070886724e-02  3.2949411604065038e-01  3.8039669210519461e-02  3.5779289958897437e-01  3.5545726781557996e-01  3.0841031136504887e-01  3.0683803971473134e-01  2.6045018750069654e-01  3.0693459289306924e-01  1.2584462130126020e-02  3.4543010617199205e-01  3.3093242821556129e-01  3.1759077532560875e-01  2.6930656734076286e-01  3.0218763282523131e-01  3.2929179512785905e-01  2.3829767461878404e-01  3.0957224688106875e-02  4.0441782445643039e-02  2.5767587869438557e-01  2.3397138340995874e-01  3.0455780902451068e-01  3.1161554264759223e-01  3.0257039105123962e-01  3.3037916661725897e-01  2.7877654444027411e-01  3.6632151123324092e-01  2.6992692184684108e-01  2.3371350373572411e-01  2.2494661912587494e-01  2.7162242006772958e-01  3.4410970267572255e-01  3.0349660455036465e-01  2.6460306732723415e-01  3.1082204878405195e-01  3.5632256035760684e-01  3.1030973041794435e-01  3.1366122797020513e-01  2.6910878565180174e-01  2.1891428945338490e-01  3.6240391607016703e-01  3.1900457157122308e-01  2.1054924869012384e-01  3.6884833991472465e-01  3.2270658626002607e-01  3.1662996369378166e-01  3.2656756111065816e-01  2.8006387952081035e-01  2.7545874747805110e-01  3.6352132923633107e-01  3.2222604212796058e-01  3.1707235253777133e-01  2.7099031808719720e-01  2.8469679385423846e-01  2.7828642105568951e-01  3.6590379805651646e-01  3.2364779839685476e-01  3.2387288251387264e-01  2.8119704972741488e-01  3.1491968004563020e-01  2.7168228308536568e-01  2.7764631678800950e-01  3.4869783030637719e-01  3.0674756223078742e-01  3.6573692554861914e-01  1.9608108487938253e-01  4.2963762425005179e-02  2.4439878190231160e-01  2.3047548901737666e-01  3.2371727708630782e-01  3.4461705152923966e-01  3.5373144230605258e-01  2.3360104001889673e-01  3.2627372766845228e-02  5.8746248370425372e-02  2.3192481741112245e-01  3.3036033529120386e-02  6.9669867671216565e-02  7.3967509621179442e-02  3.9374321478985383e-02  6.7542108623558209e-02  6.7116864513919863e-02  6.4812790781646201e-02  1.8110354489005814e-01  3.0415107813140518e-01  1.8314641800843071e-01  1.9891201703061848e-01  2.6807590895647343e-01  3.1397594668705085e-02  6.1588293614592150e-02  5.6540272983083811e-02  9.8847960029111448e-02  2.4980120086329466e-02  2.1183353404506968e-02  8.5053542494234941e-02  6.6862207709147567e-02  7.2963096705326302e-02  