<?xml version="1.0"?>
<VTKFile type="UnstructuredGrid"  version="0.1"  >
<UnstructuredGrid>
<Piece  NumberOfPoints="1251" NumberOfCells="2404">
<Points>
<DataArray  type="Float64"  NumberOfComponents="3"  format="ascii">0 0 0  0 1 0  1 1 0  1 0 0  1.1 -0.1 0  -0.1 -0.1 0  1.1 1.1 0  -0.1 1.1 0  0.5 0.5 0  0.2481183061234397 0.5435525790462136 0  0 0.9499999999997918 0  0 0.8999999999995836 0  0 0.8499999999996529 0  0 0.7999999999999998 0  0 0.7500000000003466 0  0 0.7000000000006934 0  0 0.6500000000010401 0  0 0.6000000000013869 0  0 0.5500000000017335 0  0 0.5000000000020587 0  0 0.4500000000018723 0  0 0.4000000000016644 0  0 0.3500000000014564 0  0 0.3000000000012483 0  0 0.2500000000010403 0  0 0.2000000000008322 0  0 0.1500000000006241 0  0 0.100000000000416 0  0 0.05000000000020799 0  0.04999999999989965 0 0  0.09999999999981467 0 0  0.1499999999997036 0 0  0.1999999999995579 0 0  0.2499999999994121 0 0  0.2999999999992664 0 0  0.3499999999991206 0 0  0.3999999999989749 0 0  0.4499999999988292 0 0  0.4999999999986943 0 0  0.5499999999988151 0 0  0.5999999999989468 0 0  0.6499999999990784 0 0  0.69999999999921 0 0  0.7499999999993417 0 0  0.7999999999994734 0 0  0.8499999999996051 0 0  0.8999999999997368 0 0  0.9499999999998684 0 0  1 0.04999999999989965 0  1 0.09999999999981467 0  1 0.1499999999997036 0  1 0.1999999999995579 0  1 0.2499999999994121 0  1 0.2999999999992664 0  1 0.3499999999991206 0  1 0.3999999999989749 0  1 0.4499999999988292 0  1 0.4999999999986943 0  1 0.5499999999988151 0  1 0.5999999999989468 0  1 0.6499999999990784 0  1 0.69999999999921 0  1 0.7499999999993417 0  1 0.7999999999994734 0  1 0.8499999999996051 0  1 0.8999999999997368 0  1 0.9499999999998684 0  0.9499999999997918 1 0  0.8999999999995836 1 0  0.8499999999996529 1 0  0.7999999999999998 1 0  0.7500000000003466 1 0  0.7000000000006934 1 0  0.6500000000010401 1 0  0.6000000000013869 1 0  0.5500000000017335 1 0  0.5000000000020587 1 0  0.4500000000018723 1 0  0.4000000000016644 1 0  0.3500000000014564 1 0  0.3000000000012483 1 0  0.2500000000010403 1 0  0.2000000000008322 1 0  0.1500000000006241 1 0  0.100000000000416 1 0  0.05000000000020799 1 0  -0.1 1.05000000000004 0  -0.1 1.000000000000079 0  -0.1 0.9500000000001624 0  -0.1 0.9000000000003032 0  -0.1 0.850000000000444 0  -0.1 0.8000000000005848 0  -0.1 0.7500000000007256 0  -0.1 0.7000000000008665 0  -0.1 0.6500000000010508 0  -0.1 0.6000000000012352 0  -0.1 0.5500000000014196 0  -0.1 0.500000000001539 0  -0.1 0.4500000000014195 0  -0.1 0.4000000000013 0  -0.1 0.3500000000011588 0  -0.1 0.3000000000010178 0  -0.1 0.2500000000008986 0  -0.1 0.2000000000007579 0  -0.1 0.1500000000006174 0  -0.1 0.1000000000005272 0  -0.1 0.05000000000040083 0  -0.1 2.671196597248127e-13 0  -0.1 -0.0499999999998666 0  -0.0500000000000906 -0.1 0  -1.730560139634463e-13 -0.1 0  0.04999999999975802 -0.1 0  0.09999999999961506 -0.1 0  0.1499999999994613 -0.1 0  0.199999999999302 -0.1 0  0.2499999999991446 -0.1 0  0.2999999999990088 -0.1 0  0.3499999999988296 -0.1 0  0.3999999999986936 -0.1 0  0.4499999999985143 -0.1 0  0.4999999999984002 -0.1 0  0.5499999999985247 -0.1 0  0.5999999999986493 -0.1 0  0.6499999999987955 -0.1 0  0.6999999999989417 -0.1 0  0.7499999999990659 -0.1 0  0.7999999999992116 -0.1 0  0.8499999999993573 -0.1 0  0.8999999999994526 -0.1 0  0.949999999999584 -0.1 0  0.9999999999997226 -0.1 0  1.049999999999861 -0.1 0  1.1 -0.0500000000000906 0  1.1 -1.730560139634463e-13 0  1.1 0.04999999999975802 0  1.1 0.09999999999961506 0  1.1 0.1499999999994613 0  1.1 0.199999999999302 0  1.1 0.2499999999991446 0  1.1 0.2999999999990088 0  1.1 0.3499999999988296 0  1.1 0.3999999999986936 0  1.1 0.4499999999985143 0  1.1 0.4999999999984002 0  1.1 0.5499999999985247 0  1.1 0.5999999999986493 0  1.1 0.6499999999987955 0  1.1 0.6999999999989417 0  1.1 0.7499999999990659 0  1.1 0.7999999999992116 0  1.1 0.8499999999993573 0  1.1 0.8999999999994526 0  1.1 0.949999999999584 0  1.1 0.9999999999997226 0  1.1 1.049999999999861 0  1.05000000000004 1.1 0  1.000000000000079 1.1 0  0.9500000000001624 1.1 0  0.9000000000003032 1.1 0  0.850000000000444 1.1 0  0.8000000000005848 1.1 0  0.7500000000007256 1.1 0  0.7000000000008665 1.1 0  0.6500000000010508 1.1 0  0.6000000000012352 1.1 0  0.5500000000014196 1.1 0  0.500000000001539 1.1 0  0.4500000000014195 1.1 0  0.4000000000013 1.1 0  0.3500000000011588 1.1 0  0.3000000000010178 1.1 0  0.2500000000008986 1.1 0  0.2000000000007579 1.1 0  0.1500000000006174 1.1 0  0.1000000000005272 1.1 0  0.05000000000040083 1.1 0  2.671196597248127e-13 1.1 0  -0.0499999999998666 1.1 0  0.2535807314927066 0.5677649755230381 0  0.2622117890248946 0.5910346112347571 0  0.2737049047195596 0.6130350943715762 0  0.2876594298015741 0.6335664992343371 0  0.3036595046289891 0.6525524376916769 0  0.3213560763285259 0.669967091389799 0  0.3406095838859866 0.685645517931773 0  0.3610912347214645 0.6996834293228401 0  0.3825894606992829 0.7121106711848179 0  0.4050100045358004 0.7227816422068259 0  0.4282335056322634 0.7315684112727308 0  0.4521000737325661 0.7384212722684604 0  0.4764382977118615 0.7433385215289772 0  0.50111119233234 0.7461179755537186 0  0.5259361281077043 0.7464294157377342 0  0.5506608554685344 0.7441860005828212 0  0.5750051037087619 0.7393247117832307 0  0.5986507273565601 0.7317698967253768 0  0.6212604872988757 0.7215193157143683 0  0.6426195947317631 0.7088667887910558 0  0.6625427404589393 0.6940541294136128 0  0.6807882770727324 0.6772194438006615 0  0.6971471181753184 0.6585456036957773 0  0.7114473803712954 0.6382518073514261 0  0.7235500341256059 0.6165758606071076 0  0.7332775318287262 0.5937356238064512 0  0.7403750441569649 0.5699476229324789 0  0.7448337311134007 0.5455259507441121 0  0.7467298528369475 0.5207714637719064 0  0.7460590307866425 0.495955215957736 0  0.7428033492591344 0.4713405575524082 0  0.7374301966775029 0.4470990590796223 0  0.7300845313790871 0.4233799028482182 0  0.7208413458687783 0.4003337892329173 0  0.7097872946657672 0.3780990429630273 0  0.6970369716434839 0.3567907633340359 0  0.6826955786036381 0.3365205848445822 0  0.6667140528931063 0.31751858053594 0  0.6489529193839848 0.3001707865635757 0  0.6295839439986163 0.2846383757061239 0  0.6087305724460426 0.2711669819215468 0  0.586486243155423 0.2601545289599705 0  0.5630181779248139 0.2520816824500323 0  0.5386685099105375 0.2472673270995536 0  0.5139101978535939 0.2454944667116018 0  0.489119070083865 0.2467409086758109 0  0.4646614983226082 0.2509762725380027 0  0.4407803252522322 0.2577691412247329 0  0.417591998863425 0.2666504628899132 0  0.3952258808729145 0.27743117978305 0  0.373935413566605 0.2902075325995041 0  0.3537762620538891 0.3047043770764939 0  0.3348868085491535 0.3208207610198577 0  0.317431604268162 0.3384793843779692 0  0.3015753056345614 0.357586448140652 0  0.2874337532373998 0.3779962259955763 0  0.2750417469834145 0.3995124592604702 0  0.2646759708841031 0.4220738741619275 0  0.2562939015061662 0.4454463977562867 0  0.2500822767652232 0.4694850540309812 0  0.2464207018382256 0.4940363860586268 0  0.2457165713468641 0.5188476336937184 0  0.5466742663749182 0.2707605374212669 0  0.6251388219549203 0.309472524774372 0  0.4581126141759402 0.2733974403850552 0  0.2704391466117625 0.5504070153826011 0  0.3125815360731831 0.6323209938998328 0  0.2740039280570061 0.462844569809432 0  0.6570862433602956 0.6698356883939132 0  0.7095381068253697 0.5966386762967059 0  0.7264518288770938 0.509581706033068 0  0.5811859926813859 0.7151127667447541 0  0.4902232249802867 0.7215993643213865 0  0.3126161379646599 0.3800485846945012 0  0.3734592495195205 0.3111169608764537 0  0.4242313203122923 0.7070628848254255 0  0.6841545041259919 0.3772044552247286 0  0.7146873312320922 0.4411650057051625 0  0.3628659804052036 0.6749456856595087 0  0.3405151575243773 0.3438317114329608 0  0.4156421098582255 0.2904202840437866 0  0.2893976173837416 0.4197701921431441 0  0.6582491412782562 0.3408595324322314 0  0.6871008846999975 0.6356686304900628 0  0.5348588829963277 0.7253596823512601 0  0.7227136348809953 0.5543506911943689 0  0.6221038383989713 0.6976874762512895 0  0.5025940497319913 0.267586745116419 0  0.2670426078111079 0.5058176626200437 0  0.2859533530166759 0.5926728822206415 0  0.5920712807674368 0.2843509258687947 0  0.3830360593052448 0.6887240053223888 0  0.3860757343021869 0.6647523805738371 0  0.3649585349560984 0.6501066021111329 0  0.3891585948192913 0.6399332406177554 0  0.3657278900493903 0.6244004841250279 0  0.3950101285300945 0.6116669617721608 0  0.4200741941422068 0.629374476766886 0  0.3690765793154534 0.596926925347923 0  0.3948970341215211 0.5818149797804131 0  0.3620071153320604 0.5631962173565567 0  0.4300614280966384 0.5933548274891786 0  0.4541369455570605 0.6348517004795573 0  0.4794922141456035 0.5970592592752236 0  0.4902182861398787 0.6372110347114848 0  0.5215399679510286 0.6074032591310888 0  0.552101223851163 0.6430385008697936 0  0.5670703438564861 0.60645938194895 0  0.4109079228228119 0.5465552820451552 0  0.3732099581036654 0.5198828945563385 0  0.5883708596173376 0.6366854788561115 0  0.6108869565201158 0.6112144101979747 0  0.5912402232537396 0.5725482339707503 0  0.6381542562349195 0.5785058084592303 0  0.6164021996382416 0.5405378305329884 0  0.6543756292732991 0.5447022423648769 0  0.6435979336982456 0.5058810302884614 0  0.6001780703211604 0.5025805948474783 0  0.630228773570812 0.466960073410786 0  0.5837896884437793 0.4631957125557126 0  0.6155207681942331 0.4288527821046836 0  0.5688138834889624 0.4230502981803932 0  0.5996853848394182 0.3900648255434849 0  0.5530639412397359 0.384216803905518 0  0.5802322473237942 0.3566359315957285 0  0.5436201859534249 0.3454172219008269 0  0.516366442767398 0.3766649334516732 0  0.5013321126888632 0.3379227675233982 0  0.480258037738939 0.3681633192319259 0  0.4660271141812607 0.3368917087639423 0  0.4408850053864108 0.3583907226273133 0  0.4559908641572817 0.3958756451016574 0  0.414
[...]
<PointData  Scalars="u"> 
<DataArray  type="Float64"  Name="u"  format="ascii">0.0000000000000000e+00  0.0000000000000000e+00  0.0000000000000000e+00  0.0000000000000000e+00  0.0000000000000000e+00  0.0000000000000000e+00  0.0000000000000000e+00  0.0000000000000000e+00  7.2671428772174440e-01  3.9306535026923922e-01  0.0000000000000000e+00  0.0000000000000000e+00  0.0000000000000000e+00  0.0000000000000000e+00  0.0000000000000000e+00  0.0000000000000000e+00  0.0000000000000000e+00  0.0000000000000000e+00  0.0000000000000000e+00  0.0000000000000000e+00  0.0000000000000000e+00  0.0000000000000000e+00  0.0000000000000000e+00  0.0000000000000000e+00  0.0000000000000000e+00  0.0000000000000000e+00  0.0000000000000000e+00  0.0000000000000000e+00  0.0000000000000000e+00  0.0000000000000000e+00  0.0000000000000000e+00  0.0000000000000000e+00  0.0000000000000000e+00  0.0000000000000000e+00  0.0000000000000000e+00  0.0000000000000000e+00  0.0000000000000000e+00  0.0000000000000000e+00  0.0000000000000000e+00  0.0000000000000000e+00  0.0000000000000000e+00  0.0000000000000000e+00  0.0000000000000000e+00  0.0000000000000000e+00  0.0000000000000000e+00  0.0000000000000000e+00  0.0000000000000000e+00  0.0000000000000000e+00  0.0000000000000000e+00  0.0000000000000000e+00  0.0000000000000000e+00  0.0000000000000000e+00  0.0000000000000000e+00  0.0000000000000000e+00  0.0000000000000000e+00  0.0000000000000000e+00  0.0000000000000000e+00  0.0000000000000000e+00  0.0000000000000000e+00  0.0000000000000000e+00  0.0000000000000000e+00  0.0000000000000000e+00  0.0000000000000000e+00  0.0000000000000000e+00  0.0000000000000000e+00  0.0000000000000000e+00  0.0000000000000000e+00  0.0000000000000000e+00  0.0000000000000000e+00  0.0000000000000000e+00  0.0000000000000000e+00  0.0000000000000000e+00  0.0000000000000000e+00  0.0000000000000000e+00  0.0000000000000000e+00  0.0000000000000000e+00  0.0000000000000000e+00  0.0000000000000000e+00  0.0000000000000000e+00  0.0000000000000000e+00  0.0000000000000000e+00  0.0000000000000000e+00  0.0000000000000000e+00  0.0000000000000000e+00  0.0000000000000000e+00  0.0000000000000000e+00  0.0000000000000000e+00  0.0000000000000000e+00  0.0000000000000000e+00  0.0000000000000000e+00  0.0000000000000000e+00  0.0000000000000000e+00  0.0000000000000000e+00  0.0000000000000000e+00  0.0000000000000000e+00  0.0000000000000000e+00  0.0000000000000000e+00  0.0000000000000000e+00  0.0000000000000000e+00  0.0000000000000000e+00  0.0000000000000000e+00  0.0000000000000000e+00  0.0000000000000000e+00  0.0000000000000000e+00  0.0000000000000000e+00  0.0000000000000000e+00  0.0000000000000000e+00  0.0000000000000000e+00  0.0000000000000000e+00  0.0000000000000000e+00  0.0000000000000000e+00  0.0000000000000000e+00  0.0000000000000000e+00  0.0000000000000000e+00  0.0000000000000000e+00  0.0000000000000000e+00  0.0000000000000000e+00  0.0000000000000000e+00  0.0000000000000000e+00  0.0000000000000000e+00  0.0000000000000000e+00  0.0000000000000000e+00  0.0000000000000000e+00  0.0000000000000000e+00  0.0000000000000000e+00  0.0000000000000000e+00  0.0000000000000000e+00  0.0000000000000000e+00  0.0000000000000000e+00  0.0000000000000000e+00  0.0000000000000000e+00  0.0000000000000000e+00  0.0000000000000000e+00  0.0000000000000000e+00  0.0000000000000000e+00  0.0000000000000000e+00  0.0000000000000000e+00  0.0000000000000000e+00  0.0000000000000000e+00  0.0000000000000000e+00  0.0000000000000000e+00  0.0000000000000000e+00  0.0000000000000000e+00  0.0000000000000000e+00  0.0000000000000000e+00  0.0000000000000000e+00  0.0000000000000000e+00  0.0000000000000000e+00  0.0000000000000000e+00  0.0000000000000000e+00  0.0000000000000000e+00  0.0000000000000000e+00  0.0000000000000000e+00  0.0000000000000000e+00  0.0000000000000000e+00  0.0000000000000000e+00  0.0000000000000000e+00  0.0000000000000000e+00  0.0000000000000000e+00  0.0000000000000000e+00  0.0000000000000000e+00  0.0000000000000000e+00  0.0000000000000000e+00  0.0000000000000000e+00  0.0000000000000000e+00  0.0000000000000000e+00  0.0000000000000000e+00  0.0000000000000000e+00  0.0000000000000000e+00  0.0000000000000000e+00  0.0000000000000000e+00  0.0000000000000000e+00  0.0000000000000000e+00  0.0000000000000000e+00  0.0000000000000000e+00  0.0000000000000000e+00  0.0000000000000000e+00  0.0000000000000000e+00  3.9346451305606783e-01  3.9497581216737931e-01  3.9861347291096211e-01  4.0253570927797611e-01  4.0612666028603306e-01  4.0956487884722231e-01  4.1272857496759985e-01  4.1487348111736849e-01  4.1558294828954440e-01  4.1557975526322677e-01  4.1479260272620117e-01  4.1292502881369608e-01  4.1068690975517075e-01  4.0795709538933783e-01  4.0516699354047098e-01  4.0301325355923967e-01  4.0144359250208839e-01  4.0033335406893084e-01  3.9982773627039825e-01  3.9986779891914759e-01  4.0010684404150365e-01  4.0025476952397110e-01  4.0037831348756114e-01  4.0066425989021642e-01  4.0077252818378006e-01  4.0091784178430856e-01  4.0191364384033029e-01  4.0362397580535814e-01  4.0555644842092958e-01  4.0789540325755275e-01  4.1069695675228801e-01  4.1305357593087799e-01  4.1464843439085475e-01  4.1568566833892923e-01  4.1579189706245478e-01  4.1439504885093043e-01  4.1204231197770608e-01  4.0910539051168204e-01  4.0504318827043795e-01  4.0168372722450874e-01  3.9781080937740376e-01  3.9480165022294328e-01  3.9307007813073780e-01  3.9292361715834107e-01  3.9418665900370825e-01  3.9661736341868781e-01  4.0044622602063878e-01  4.0455331100205871e-01  4.0799890309772524e-01  4.1093700175035341e-01  4.1255695030902284e-01  4.1443940646250554e-01  4.1524149581794428e-01  4.1495713673643569e-01  4.1369154304987127e-01  4.1275876455213345e-01  4.1022747441348889e-01  4.0675384119740032e-01  4.0372080006214578e-01  3.9980399744271733e-01  3.9638989274002340e-01  3.9407895263377257e-01  4.5055894033350918e-01  4.6243700859889936e-01  4.5570031850711473e-01  4.4775081138916667e-01  4.5784525597620562e-01  4.5916658156145695e-01  4.5712589107956325e-01  4.5620130860719743e-01  4.6055015236902769e-01  4.5734769973600059e-01  4.7110778119546881e-01  4.7123185124166439e-01  4.5895415046610832e-01  4.7252775941809994e-01  4.7230198327092937e-01  4.6766522137765454e-01  4.7054671563559175e-01  4.6882550690693686e-01  4.6426787981874512e-01  4.6576304367348470e-01  4.6773555306059539e-01  4.5719665148389843e-01  4.5865216446548895e-01  4.5705709211294365e-01  4.5365341706429391e-01  4.5304694562996362e-01  4.5156696460777418e-01  4.5125398365580915e-01  4.4858852932268661e-01  4.6987593200511368e-01  5.1739015508507424e-01  5.1526614520316560e-01  5.6000169491533758e-01  5.5270117653165740e-01  6.0364854813441171e-01  6.0465240296082390e-01  5.8873299478169716e-01  6.3351110661470589e-01  6.0856149075309840e-01  6.5560092651066337e-01  6.2006986262411923e-01  6.7457884777883559e-01  6.2700443812737949e-01  6.6470228125500908e-01  6.0696051689231623e-01  6.4498381154067852e-01  6.7481520867467415e-01  6.4191105885184074e-01  5.9050581233770905e-01  6.0069168442425191e-01  6.5654031745062680e-01  5.9754834744292018e-01  6.4781182900334144e-01  5.9304499066022620e-01  6.1893929490572885e-01  6.7370627079717971e-01  6.3193637571698824e-01  6.8227979845443343e-01  6.3041734469276900e-01  6.7092165612445287e-01  6.1274915595812718e-01  6.4292543224796561e-01  5.8770798621205667e-01  5.9488326221022658e-01  6.4672910092186453e-01  5.9221401452419875e-01  6.3468185882035488e-01  5.8332005055189617e-01  6.0465056526633143e-01  6.5977918622186360e-01  6.1992688339586843e-01  6.7239911430013055e-01  6.2248952744790942e-01  5.8730826743640596e-01  5.9680030365191550e-01  6.8531172858114475e-01  5.9694370356878723e-01  5.8647151503160300e-01  5.8883648388714771e-01  5.7634093133764208e-01  6.0946219124335688e-01  5.5612480850671242e-01  5.3936788084046017e-01  5.6398174490596698e-01  5.2553175287367115e-01  5.4527378115613923e-01  5.5514443753753795e-01  5.5712368996371797e-01  5.7488359710642201e-01  5.4312816161110755e-01  5.5621545431252895e-01  5.5215727420279492e-01  5.6769068841355685e-01  5.4767706230844770e-01  6.9554988648398808e-01  5.8693483308011807e-01  5.4824316776124904e-01  5.2777971534821289e-01  5.5380704106602496e-01  5.3329340620561905e-01  5.2167930287994002e-01  5.3250136016070215e-01  5.0923016785637976e-01  5.3043512134126936e-01  5.4487459388787307e-01  5.0593368288421436e-01  5.3365959366460636e-01  5.3445828329130163e-01  6.9332806451037032e-01  5.2851196883709795e-01  5.4140820942587387e-01  5.4248372180397242e-01  5.1222914469489500e-01  5.7043522296604865e-01  5.3826921838389452e-01  5.2598187252183304e-01  5.6468874662142643e-01  5.2756338076849885e-01  4.9737596123381000e-01  4.9855501727112084e-01  5.0124175110506697e-01  5.0270358039179741e-01  5.8995219100424323e-01  5.4748059829748696e-01  5.1176352438956763e-01  6.4140387388647080e-01  7.0931721495050404e-01  4.8700992863513531e-01  7.0978684455380958e-01  6.8687109198933616e-01  5.2173498146009878e-01  4.9748973686012260e-01  6.8999718351901129e-01  6.6643387615913385e-01  5.6238952412293897e-01  4.6565212066808159e-01  4.6845988647966585e-01  5.2176341159836681e-01  4.6799582024503616e-01  4.6797473973059700e-01  4.9823576287983029e-01  5.0127415461670011e-01  4.6532392273173540e-01  4.6765529879966777e-01  4.6661286069296243e-01  4.5860390568669285e-01  4.7556179232245244e-01  4.7159074740485418e-01  4.6452464711530927e-01  5.1104837077819854e-01  5.1129571653966432e-01  5.0337170013165677e-01  5.0888743536231917e-01  5.0487300026339610e-01  5.6016452806321093e-01  4.6060580250211586e-01  5.1157280787170289e-01  4.5525303617403706e-01  5.0329048788480379e-01  4.5874752547193354e-01  4.5909372758451295e-01  4.6116692411764376e-01  5.0462019299282601e-01  5.3750277562843851e-01  4.5579515384264518e-01  5.1025871661789912e-01  4.5601979427886608e-01  5.0491384207198475e-01  5.2061450073483473e-01  4.5416787330473041e-01  4.5409824318156666e-01  4.5500050942376569e-01  5.0358127238417838e-01  7.1182210215377617e-01  4.4964571106910889e-01  7.0899782286537472e-01  4.5060533280943887e-01  4.9567439589305257e-01  4.5308850567171838e-01  4.4740090483702333e-01  4.5407340029756915e-01  4.9736642250095325e-01  5.4418271244608651e-01  6.9135290324484655e-01  7.1432407585854563e-01  5.0055739279068479e-01  4.6413369282871042e-01  4.5372599740856417e-01  5.0959488739441117e-01  4.6112414854356520e-01  6.7832815537592894e-01  5.4511402789690344e-01  5.3828440684931911e-01  5.4252817366856854e-01  4.5242807817791797e-01  5.1131204246600392e-01  5.0069571693710346e-01  4.9210020128634557e-01  4.9929384658651260e-01  4.9324706764227039e-01  5.7279466921374067e-01  5.1306940949765256e-01  5.4471305456776398e-01  5.0514445222156767e-01  5.0180033077839215e-01  4.9457765848594659e-01  5.3873028023044633e-01  5.1048445688774446e-01  5.0801734402954501e-01  4.9272933667739177e-01  4.9774888035602116e-01  5.4465154399142046e-01  7.1644991747762465e-01  4.9301088465914233e-01  7.1298238035308525e-01  5.5197033021642405e-01  4.5324802306251000e-01  5.5544523477484731e-01  4.4176309371465683e-01  5.7482681953983250e-01  5.6326224633401689e-01  5.8878915549887911e-01  5.2715819320611101e-01  5.0654957204310369e-01  5.7139516095826093e-01  5.8063325689936629e-01  5.8329517065774317e-01  4.8926036620439572e-01  5.5523065165773178e-01  5.4738317076881149e-01  5.3735095477711914e-01  5.0569688443067806e-01  4.5290672129774545e-01  5.3916022714916123e-01  5.6509956282935836e-01  4.8908445803063483e-01  4.9323092030809323e-01  4.9836139086222736e-01  5.5445593065087972e-01  4.9287823999463465e-01  5.7265949878320643e-01  5.4677093376504105e-01  5.6679406245869579e-01  5.0478099626574646e-01  5.6223897047732141e-01  5.7507641066169790e-01  5.3848090473352206e-01  5.6702158182548179e-01  4.9396269613358951e-01  5.7334432880814312e-01  5.6480750690924031e-01  6.0718693134908452e-01  5.0664069558063485e-01  3.6111844622748768e-01  3.5861206188625999e-01  3.5454680364723623e-01  3.4751091758128477e-01  3.5758955352347155e-01  3.6211699436979256e-01  3.4189907011431420e-01  3.5970765679246364e-01  3.5627377751093126e-01  3.5253383251001796e-01  3.3995080140386452e-01  3.4102191925223374e-01  3.4024059416152186e-01  3.4253371547552047e-01  3.3766477120784383e-01  3.3733127126870605e-01  3.4384880155636766e-01  1.9436040304947885e-02  3.6072334657896138e-01  2.0508304194010132e-02  1.9933752020725670e-02  2.0603599362725104e-02  2.0590585156807450e-02  1.9769080876543114e-02  3.5136574543379673e-01  2.0104591924945219e-02  3.4405210516836138e-01  3.4911507823037735e-01  1.9362205752146835e-02  3.4337744248355978e-01  3.5843429288295603e-01  3.4714917376091170e-01  3.5034517986825209e-01  4.6080989639775242e-02  4.4609354721520375e-02  3.8638146843413053e-02  4.2655169420219761e-02  4.8098625784439714e-02  4.9893234269036323e-02  4.5670769521970640e-02  4.1198089353983662e-02  5.3872682767641428e-02  4.7630002169561120e-02  4.8080482766993990e-02  5.1955813082643097e-02  5.5147304560315301e-03  6.6263239628431185e-03  5.7289488840333060e-03  5.0828471038254644e-03  4.6502140103364988e-03  4.5737663325683669e-03  4.7038002415076543e-03  6.7724140409806625e-03  3.3572525056880864e-01  2.8934488958058224e-01  2.8746711981136680e-01  2.4547054804690671e-01  2.4550001159245463e-01  2.4096625570529853e-01  2.0294097834236746e-01  2.0854540818145476e-01  1.5927588856544633e-01  1.5644510275847806e-01  1.9950633417162375e-01  1.5095354152764057e-01  1.9685482717754377e-01  1.4304116909126402e-01  1.7680638887521644e-01  1.3197849621879648e-01  1.6005734707924590e-01  1.1020107126017532e-01  1.3864005589199663e-01  9.6640852707095479e-02  1.1630301748857934e-01  1.6225142422516894e-01  1.3442374718047514e-01  1.8215699700767865e-01  1.4853190979867384e-01  7.7997246587596061e-02  2.0482385859104540e-01  1.5999725221410890e-01  1.1489919546908407e-01  1.0150979463854655e-01  2.0972947932848104e-01  1.6526985744106087e-01  2.2152841220742953e-01  1.6732156145400787e-01  2.2223831174041675e-01  1.6384436633253555e-01  2.0741729394383582e-01  2.1137935171406308e-01  6.2010494186199437e-02  4.6750656232919456e-02  1.6429494102944275e-01  5.8912004351759965e-02  2.1032311506729076e-01  1.1608256684941651e-01  1.5653828114511872e-01  2.0321228924982629e-01  1.2276831749370611e-01  1.4471415571910293e-01  1.7991215079099471e-01  1.2520676423057750e-01  1.5547466718708136e-01  2.0993933062466946e-01  1.9683364030421338e-01  1.3306041105594074e-01  1.6552260111613032e-01  2.2123554256585434e-01  1.9355613796516269e-01  1.4055154240535575e-01  1.5853281937234504e-01  1.1486834134348374e-01  1.3070398074485418e-01  1.8274760123534947e-01  1.4476888966694673e-01  1.9492040213410028e-01  1.6047260525549520e-01  1.1440044870411280e-01  1.1829625196934214e-01  1.5705977242578897e-01  1.1987954699987173e-01  1.5620037546841442e-01  8.2079723111422670e-02  1.1631479689515513e-01  1.5822324435646995e-01  1.0744463611090020e-01  1.3938621768016279e-01  1.9562343285445535e-01  8.9377459598395631e-02  2.6710435429879054e-01  9.3242545572622140e-02  1.2116072463271665e-01  1.7197443259422432e-01  1.5049836287443208e-01  2.1265147491411485e-01  1.8128478220092639e-01  1.2653617953359750e-01  1.5281824475327138e-01  2.0899528442790496e-01  1.8574951241745927e-01  7.3317672212316470e-02  9.3738610604953559e-02  2.2771508748032784e-01  7.7916839468637991e-02  2.5419963519925753e-01  2.4791002598833517e-01  2.3774974306686858e-01  1.9884698025745184e-01  2.5320645769452599e-01  2.2264413128277952e-01  1.6139458023639389e-01  1.7539663514862255e-01  2.2766523869615191e-01  1.8419279447612397e-01  2.3412436517909954e-01  1.9602439831498075e-01  1.4518259311983284e-01  1.4835166398711216e-01  1.8941553668245611e-01  1.4740153798257763e-01  1.8573613613553666e-01  1.4256160006028193e-01  1.7890117463874058e-01  1.3380839946372214e-01  1.6548732808004821e-01  1.2047878870671269e-01  1.4748186867103730e-01  9.3682126239343341e-02  8.1592451994757051e-02  1.0249136500395323e-01  6.0429337545924937e-02  1.9789299309851296e-01  1.7641134950079571e-01  1.2714810245487002e-01  1.5773467923972426e-01  1.0543941071268137e-01  2.2407719382245880e-01  1.2251414132227396e-01  1.7172958886279882e-01  1.3731343933017273e-01  1.8921866777840773e-01  1.4990703695346641e-01  2.2971809744109495e-01  7.0827867175382822e-02  2.0961148975174676e-01  1.5998930221010427e-01  4.9557708497495870e-02  2.1316266018998339e-01  1.7411150939437009e-01  2.1661011163466112e-01  1.6764282794900562e-01  2.1672894577555360e-01  1.6047225653600508e-01  2.0354182415163746e-01  1.5290604218822185e-01  1.9801662083705390e-01  1.4182109465459136e-01  1.7273197463560108e-01  1.2389885235654974e-01  1.5254401911751553e-01  1.0673218087686280e-01  1.3003884585386574e-01  1.7929354765109951e-01  1.5185058822906539e-01  1.0684826288515505e-01  1.2389024005957068e-01  8.3867381857945067e-02  9.6325734009841638e-02  1.3768334463077070e-01  1.0534119466371318e-01  1.4689209880578391e-01  1.1077040514483476e-01  1.5125555696014054e-01  1.8060902332744777e-01  6.1885370081577441e-02  1.0849704273468892e-01  1.5086946693887396e-01  1.9760858715756638e-01  2.0083240305984662e-01  1.4692424325294423e-01  1.8647588299852511e-01  1.3704193151124183e-01  1.7634640710827221e-01  1.2330735964630049e-01  2.0519766079631691e-01  5.1343874425798831e-02  2.3384658204110179e-01  7.5277697698956161e-02  3.4533290910192797e-02  2.2535198684779975e-01  3.3719046881381651e-02  8.0917520712681504e-02  4.2320324730906939e-02  1.2456340943128325e-01  2.3188831116628741e-01  2.3425268356775369e-01  2.4546785710127320e-01  7.7608781492518014e-02  1.1459380313051910e-01  1.1703659101274196e-01  2.4583281353548886e-01  8.5659619413373772e-02  2.7769092492083813e-01  2.5891504170429652e-01  2.8652876067614869e-01  2.6344827603299725e-01  2.2896751989626576e-01  2.4701054249283247e-01  2.4520366673593008e-01  7.1785517491499473e-02  2.5968091300828067e-01  1.2453595422912699e-01  2.7466020724426288e-01  2.9950356129376626e-01  2.6610363474200593e-01  1.7150337336415961e-01  3.4603371570559746e-02  2.1478847163939094e-02  2.5041068965460128e-01  2.7990182286150389e-01  2.5957073657350488e-01  1.1467292729524156e-01  1.1243627216336823e-01  2.9240356080049712e-01  2.5812224771864417e-01  2.5966553724805008e-01  2.5752688159995041e-01  2.6035096269051783e-01  2.6397968064220395e-01  2.7795921821245589e-01  2.5116285699873414e-01  2.7749066348334733e-01  3.0888545860859101e-01  2.7587506505102288e-01  2.8171356944553705e-01  2.6390099914155524e-01  7.5371604500322403e-02  2.3491712422713762e-01  2.4816392199775725e-01  2.8597063721317145e-01  3.1012139427729446e-01  2.7973933482471891e-01  2.4316469560774517e-01  9.8602638151945199e-02  3.1486806569729997e-01  2.7972284941812425e-01  9.3720427507837656e-02  1.0768479013651132e-01  7.8114821466129275e-02  2.6130104390866455e-02  4.6711817043709913e-02  5.5826143934775092e-02  6.5728937936167409e-02  4.6576705603809658e-02  2.8550026653172739e-01  2.8846411756575346e-01  2.9084684768029456e-01  2.9412419866271006e-01  2.5276777280215013e-01  2.9395979329955607e-01  2.6412736427610473e-01  3.1028283423570741e-01  2.4164195866931160e-01  2.7534211270259312e-01  2.2152404020000069e-01  2.7542164562585358e-01  3.4543495184830425e-01  3.1382436940225394e-01  3.4457110047389072e-01  2.4088384168271429e-02  3.3997189726965954e-01  2.9402353967704636e-01  2.9432185544351325e-01  2.4926059795248842e-01  9.3489798494052714e-02  3.4056904005465560e-01  2.9008063267498524e-01  3.2836242163853574e-01  2.7565329178347503e-01  7.6693964523998612e-02  2.9302225075877258e-01  2.2697509383473255e-01  2.8982143252366643e-01  3.3750418885398681e-01  2.9467128702226358e-01  2.9462127549483652e-01  3.4123273130363013e-01  3.3809541813554067e-01  2.9456904690244767e-01  2.8499020004426751e-01  3.4844504037666374e-01  2.6371185323528185e-01  3.0716400440821101e-01  3.0084313933920159e-01  3.4230113885954788e-01  2.9009632704819388e-01  3