<?xml version="1.0"?>
<VTKFile type="UnstructuredGrid"  version="0.1"  >
<UnstructuredGrid>
<Piece  NumberOfPoints="1008" NumberOfCells="1918">
<Points>
<DataArray  type="Float64"  NumberOfComponents="3"  format="ascii">0 0 0  0 1 0  1 1 0  1 0 0  1.1 -0.1 0  -0.1 -0.1 0  1.1 1.1 0  -0.1 1.1 0  0.4 0.5 0  0.5 0.5 0  0 0.9499999999997918 0  0 0.8999999999995836 0  0 0.8499999999996529 0  0 0.7999999999999998 0  0 0.7500000000003466 0  0 0.7000000000006934 0  0 0.6500000000010401 0  0 0.6000000000013869 0  0 0.5500000000017335 0  0 0.5000000000020587 0  0 0.4500000000018723 0  0 0.4000000000016644 0  0 0.3500000000014564 0  0 0.3000000000012483 0  0 0.2500000000010403 0  0 0.2000000000008322 0  0 0.1500000000006241 0  0 0.100000000000416 0  0 0.05000000000020799 0  0.04999999999989965 0 0  0.09999999999981467 0 0  0.1499999999997036 0 0  0.1999999999995579 0 0  0.2499999999994121 0 0  0.2999999999992664 0 0  0.3499999999991206 0 0  0.3999999999989749 0 0  0.4499999999988292 0 0  0.4999999999986943 0 0  0.5499999999988151 0 0  0.5999999999989468 0 0  0.6499999999990784 0 0  0.69999999999921 0 0  0.7499999999993417 0 0  0.7999999999994734 0 0  0.8499999999996051 0 0  0.8999999999997368 0 0  0.9499999999998684 0 0  1 0.04999999999989965 0  1 0.09999999999981467 0  1 0.1499999999997036 0  1 0.1999999999995579 0  1 0.2499999999994121 0  1 0.2999999999992664 0  1 0.3499999999991206 0  1 0.3999999999989749 0  1 0.4499999999988292 0  1 0.4999999999986943 0  1 0.5499999999988151 0  1 0.5999999999989468 0  1 0.6499999999990784 0  1 0.69999999999921 0  1 0.7499999999993417 0  1 0.7999999999994734 0  1 0.8499999999996051 0  1 0.8999999999997368 0  1 0.9499999999998684 0  0.9499999999997918 1 0  0.8999999999995836 1 0  0.8499999999996529 1 0  0.7999999999999998 1 0  0.7500000000003466 1 0  0.7000000000006934 1 0  0.6500000000010401 1 0  0.6000000000013869 1 0  0.5500000000017335 1 0  0.5000000000020587 1 0  0.4500000000018723 1 0  0.4000000000016644 1 0  0.3500000000014564 1 0  0.3000000000012483 1 0  0.2500000000010403 1 0  0.2000000000008322 1 0  0.1500000000006241 1 0  0.100000000000416 1 0  0.05000000000020799 1 0  -0.1 1.05000000000004 0  -0.1 1.000000000000079 0  -0.1 0.9500000000001624 0  -0.1 0.9000000000003032 0  -0.1 0.850000000000444 0  -0.1 0.8000000000005848 0  -0.1 0.7500000000007256 0  -0.1 0.7000000000008665 0  -0.1 0.6500000000010508 0  -0.1 0.6000000000012352 0  -0.1 0.5500000000014196 0  -0.1 0.500000000001539 0  -0.1 0.4500000000014195 0  -0.1 0.4000000000013 0  -0.1 0.3500000000011588 0  -0.1 0.3000000000010178 0  -0.1 0.2500000000008986 0  -0.1 0.2000000000007579 0  -0.1 0.1500000000006174 0  -0.1 0.1000000000005272 0  -0.1 0.05000000000040083 0  -0.1 2.671196597248127e-13 0  -0.1 -0.0499999999998666 0  -0.0500000000000906 -0.1 0  -1.730560139634463e-13 -0.1 0  0.04999999999975802 -0.1 0  0.09999999999961506 -0.1 0  0.1499999999994613 -0.1 0  0.199999999999302 -0.1 0  0.2499999999991446 -0.1 0  0.2999999999990088 -0.1 0  0.3499999999988296 -0.1 0  0.3999999999986936 -0.1 0  0.4499999999985143 -0.1 0  0.4999999999984002 -0.1 0  0.5499999999985247 -0.1 0  0.5999999999986493 -0.1 0  0.6499999999987955 -0.1 0  0.6999999999989417 -0.1 0  0.7499999999990659 -0.1 0  0.7999999999992116 -0.1 0  0.8499999999993573 -0.1 0  0.8999999999994526 -0.1 0  0.949999999999584 -0.1 0  0.9999999999997226 -0.1 0  1.049999999999861 -0.1 0  1.1 -0.0500000000000906 0  1.1 -1.730560139634463e-13 0  1.1 0.04999999999975802 0  1.1 0.09999999999961506 0  1.1 0.1499999999994613 0  1.1 0.199999999999302 0  1.1 0.2499999999991446 0  1.1 0.2999999999990088 0  1.1 0.3499999999988296 0  1.1 0.3999999999986936 0  1.1 0.4499999999985143 0  1.1 0.4999999999984002 0  1.1 0.5499999999985247 0  1.1 0.5999999999986493 0  1.1 0.6499999999987955 0  1.1 0.6999999999989417 0  1.1 0.7499999999990659 0  1.1 0.7999999999992116 0  1.1 0.8499999999993573 0  1.1 0.8999999999994526 0  1.1 0.949999999999584 0  1.1 0.9999999999997226 0  1.1 1.049999999999861 0  1.05000000000004 1.1 0  1.000000000000079 1.1 0  0.9500000000001624 1.1 0  0.9000000000003032 1.1 0  0.850000000000444 1.1 0  0.8000000000005848 1.1 0  0.7500000000007256 1.1 0  0.7000000000008665 1.1 0  0.6500000000010508 1.1 0  0.6000000000012352 1.1 0  0.5500000000014196 1.1 0  0.500000000001539 1.1 0  0.4500000000014195 1.1 0  0.4000000000013 1.1 0  0.3500000000011588 1.1 0  0.3000000000010178 1.1 0  0.2500000000008986 1.1 0  0.2000000000007579 1.1 0  0.1500000000006174 1.1 0  0.1000000000005272 1.1 0  0.05000000000040083 1.1 0  2.671196597248127e-13 1.1 0  -0.0499999999998666 1.1 0  0.413200975014212 0.5192035392014908 0  0.4339563047316996 0.53136982261772 0  0.4562864406123677 0.5404001361654811 0  0.479432157920008 0.5470712751750029 0  0.5032814010632266 0.5498583462816717 0  0.5256414774270748 0.5415761452363546 0  0.5423561546583677 0.5244490415983751 0  0.5499542453407068 0.5018597815586064 0  0.5467487033374807 0.4780442227828945 0  0.5399322316607909 0.4549405265910108 0  0.5307540760512562 0.4326712870419081 0  0.5183314934494303 0.4120740827424673 0  0.4985776268760465 0.4000746251311792 0  0.4768526146022003 0.4100351076933374 0  0.4577596682256442 0.4247166262466516 0  0.4401217642235944 0.4411293407984961 0  0.4237918675066866 0.4588437535265456 0  0.4092504518190551 0.4780420368750422 0  0.447645340386379 0.4628057061305759 0  0.4813465976544624 0.4336982899717946 0  0.4525340657511572 0.5188843191042168 0  0.5163818133719034 0.4516913377241036 0  0.5266451985986329 0.4935216653902241 0  0.4937620663106359 0.5278825334987743 0  0.4219116256705959 0.4978639191291661 0  0.5189367541460309 0.5187912331064169 0  0.5078805423949391 0.4757853678925692 0  0.4840190241512899 0.4815582178347909 0  0.4731777650448697 0.5050541469609497 0  0.4581784534006251 0.4820877484225854 0  0.489733824610962 0.4569725882756889 0  0.4985223025599979 0.4215002689619831 0  0.4617226224599337 0.4466590437233125 0  0.4710384991278077 0.5278584821808849 0  0.4334084798864541 0.4793428092849855 0  0.4687434821068312 0.4663444490376313 0  0.4454572680382713 0.4994011518381338 0  0.5278132821688724 0.4709408076354815 0  0.5003764414641055 0.439649701189963 0  0.4335332184759269 0.5131739681269 0  0.5344730881859345 0.5096554304134056 0  0.510405424736742 0.5345270645308042 0  0.5132979631148064 0.430659308394381 0  0.5487738284250964 0.5474318185402934 0  0.5429015239699517 0.4128579863051571 0  0.4134366081009996 0.5426087499394054 0  0.4323760319461559 0.4209220592915461 0  0.5697432860105743 0.4900347405406776 0  0.4889514926725982 0.5690470879578999 0  0.3863435631489825 0.4801943845018684 0  0.7180111834075568 0.9537424233901785 0  0.9566987298109043 0.2749999999993393 0  0.2836613435606126 0.952660289213613 0  0.9576307886584577 0.6739745530308254 0  0.04257561756465864 0.2762213952382224 0  0.4792310632581102 0.386550115085522 0  0.04625111253660573 0.6790287736026924 0  0.6739120216532731 0.04291736056720213 0  0.5789536028249374 0.958234371521945 0  0.3211815955024975 0.04870841137698274 0  0.4247855771759288 0.9638077350320453 0  0.959587581885375 0.4378872728870044 0  0.05083442155064064 0.4230177580626086 0  0.5286182744390995 0.03897311959538227 0  0.4996768783456172 0.3759215995344048 0  0.4807196527313254 0.3618698832620716 0  0.5031792593178821 0.3514744155684553 0  0.4823673651217342 0.3370329667075916 0  0.5068835010563555 0.3262170153536102 0  0.4832300360691051 0.30916249710999 0  0.4579383779443882 0.3199805555481626 0  0.5100682397711257 0.2981506746286358 0  0.4854003420753608 0.2821990919453667 0  0.3758960226062156 0.5016939313086131 0  0.3611699014871382 0.4834133326531989 0  0.3514279385435571 0.5061217254970766 0  0.3363783118952071 0.4857945387878562 0  0.3262702319644786 0.5105883193799042 0  0.3097435842940252 0.4893644374967661 0  0.3198403779497322 0.4631215385442337 0  0.2985439819766945 0.5153015866548833 0  0.3167638940686815 0.5377517886647323 0  0.2874238457053453 0.543349095155054 0  0.3074526957453974 0.567012881716191 0  0.2745123874677292 0.5729395361646119 0  0.2969823390227812 0.5977918065280979 0  0.290265398716738 0.4672104558470299 0  0.3018850154390094 0.4380532165419558 0  0.5336588475905306 0.3158948397020634 0  0.5382417275445595 0.2862175927852152 0  0.5632434257076467 0.3068101563309492 0  0.5679254016063925 0.2742648771675203 0  0.5939155328893725 0.2959340619769763 0  0.2557343919156111 0.5480141127199882 0  0.2611452078611223 0.6046360095151034 0  0.2855610510981094 0.6303028506908622 0  0.5989208822912457 0.2618232564680133 0  0.6253109446316203 0.2834584419345588 0  0.269584742296921 0.4436850487533851 0  0.2817651537410489 0.4118370286201914 0  0.1748409888778464 0.0377330509432022 0  0.8246669255586121 0.04279733624875524 0  0.04366064330841141 0.8265075720039411 0  0.9581242838124916 0.8246848715492195 0  0.320299418096249 0.6233620253364774 0  0.3090976037076039 0.6560755961690934 0  0.2751085767946827 0.6631249966751123 0  0.343380706204133 0.6504238724834386 0  0.3322611035657038 0.6822159153796595 0  0.3665535623242347 0.6755652195016804 0  0.3552493167519208 0.7087873641840099 0  0.3902438338584692 0.7017811513079321 0  0.6200055769930236 0.3177639909681924 0  0.6519725423486177 0.3052154267748148 0  0.6463562318788192 0.3393029122024687 0  0.6786663661970564 0.3271618799789361 0  0.6729398614255575 0.3615865961310782 0  0.6848127542848664 0.2924950479120059 0  0.7057642657094562 0.3489799967125923 0  0.6997403040547077 0.3847899755082231 0  0.7336731898714325 0.371421984927095 0  0.7272806343040727 0.4084262713670919 0  0.3787109858303718 0.7360216997649949 0  0.4143195061002643 0.7288185175813684 0  0.3422802455671462 0.7416709263914686 0  0.2475547157863124 0.4178708227261246 0  0.2596597179512719 0.3849246016284873 0  0.2947206258574375 0.379368841056597 0  0.2733169840420786 0.3511058882248657 0  0.5716011556808884 0.2408547232059096 0  0.2363186265198579 0.3567014281340585 0  0.2501820294011602 0.3218590844779483 0  0.2878408379123431 0.316
[...]
<PointData  Scalars="u"> 
<DataArray  type="Float64"  Name="u"  format="ascii">0.0000000000000000e+00  0.0000000000000000e+00  0.0000000000000000e+00  0.0000000000000000e+00  0.0000000000000000e+00  0.0000000000000000e+00  0.0000000000000000e+00  0.0000000000000000e+00  -1.0287252053020121e-01  -7.1561375098001603e-02  0.0000000000000000e+00  0.0000000000000000e+00  0.0000000000000000e+00  0.0000000000000000e+00  0.0000000000000000e+00  0.0000000000000000e+00  0.0000000000000000e+00  0.0000000000000000e+00  0.0000000000000000e+00  0.0000000000000000e+00  0.0000000000000000e+00  0.0000000000000000e+00  0.0000000000000000e+00  0.0000000000000000e+00  0.0000000000000000e+00  0.0000000000000000e+00  0.0000000000000000e+00  0.0000000000000000e+00  0.0000000000000000e+00  0.0000000000000000e+00  0.0000000000000000e+00  0.0000000000000000e+00  0.0000000000000000e+00  0.0000000000000000e+00  0.0000000000000000e+00  0.0000000000000000e+00  0.0000000000000000e+00  0.0000000000000000e+00  0.0000000000000000e+00  0.0000000000000000e+00  0.0000000000000000e+00  0.0000000000000000e+00  0.0000000000000000e+00  0.0000000000000000e+00  0.0000000000000000e+00  0.0000000000000000e+00  0.0000000000000000e+00  0.0000000000000000e+00  0.0000000000000000e+00  0.0000000000000000e+00  0.0000000000000000e+00  0.0000000000000000e+00  0.0000000000000000e+00  0.0000000000000000e+00  0.0000000000000000e+00  0.0000000000000000e+00  0.0000000000000000e+00  0.0000000000000000e+00  0.0000000000000000e+00  0.0000000000000000e+00  0.0000000000000000e+00  0.0000000000000000e+00  0.0000000000000000e+00  0.0000000000000000e+00  0.0000000000000000e+00  0.0000000000000000e+00  0.0000000000000000e+00  0.0000000000000000e+00  0.0000000000000000e+00  0.0000000000000000e+00  0.0000000000000000e+00  0.0000000000000000e+00  0.0000000000000000e+00  0.0000000000000000e+00  0.0000000000000000e+00  0.0000000000000000e+00  0.0000000000000000e+00  0.0000000000000000e+00  0.0000000000000000e+00  0.0000000000000000e+00  0.0000000000000000e+00  0.0000000000000000e+00  0.0000000000000000e+00  0.0000000000000000e+00  0.0000000000000000e+00  0.0000000000000000e+00  0.0000000000000000e+00  0.0000000000000000e+00  0.0000000000000000e+00  0.0000000000000000e+00  0.0000000000000000e+00  0.0000000000000000e+00  0.0000000000000000e+00  0.0000000000000000e+00  0.0000000000000000e+00  0.0000000000000000e+00  0.0000000000000000e+00  0.0000000000000000e+00  0.0000000000000000e+00  0.0000000000000000e+00  0.0000000000000000e+00  0.0000000000000000e+00  0.0000000000000000e+00  0.0000000000000000e+00  0.0000000000000000e+00  0.0000000000000000e+00  0.0000000000000000e+00  0.0000000000000000e+00  0.0000000000000000e+00  0.0000000000000000e+00  0.0000000000000000e+00  0.0000000000000000e+00  0.0000000000000000e+00  0.0000000000000000e+00  0.0000000000000000e+00  0.0000000000000000e+00  0.0000000000000000e+00  0.0000000000000000e+00  0.0000000000000000e+00  0.0000000000000000e+00  0.0000000000000000e+00  0.0000000000000000e+00  0.0000000000000000e+00  0.0000000000000000e+00  0.0000000000000000e+00  0.0000000000000000e+00  0.0000000000000000e+00  0.0000000000000000e+00  0.0000000000000000e+00  0.0000000000000000e+00  0.0000000000000000e+00  0.0000000000000000e+00  0.0000000000000000e+00  0.0000000000000000e+00  0.0000000000000000e+00  0.0000000000000000e+00  0.0000000000000000e+00  0.0000000000000000e+00  0.0000000000000000e+00  0.0000000000000000e+00  0.0000000000000000e+00  0.0000000000000000e+00  0.0000000000000000e+00  0.0000000000000000e+00  0.0000000000000000e+00  0.0000000000000000e+00  0.0000000000000000e+00  0.0000000000000000e+00  0.0000000000000000e+00  0.0000000000000000e+00  0.0000000000000000e+00  0.0000000000000000e+00  0.0000000000000000e+00  0.0000000000000000e+00  0.0000000000000000e+00  0.0000000000000000e+00  0.0000000000000000e+00  0.0000000000000000e+00  0.0000000000000000e+00  0.0000000000000000e+00  0.0000000000000000e+00  0.0000000000000000e+00  0.0000000000000000e+00  0.0000000000000000e+00  0.0000000000000000e+00  0.0000000000000000e+00  0.0000000000000000e+00  0.0000000000000000e+00  0.0000000000000000e+00  0.0000000000000000e+00  0.0000000000000000e+00  0.0000000000000000e+00  0.0000000000000000e+00  0.0000000000000000e+00  0.0000000000000000e+00  0.0000000000000000e+00  0.0000000000000000e+00  0.0000000000000000e+00  -9.9523863055095793e-02  -9.5647289780636094e-02  -9.4460882863041093e-02  -9.5849339108063855e-02  -9.9797704678909277e-02  -1.0139649065201518e-01  -1.0135837294907576e-01  -9.9431800434680487e-02  -9.5737445724171408e-02  -9.4409126715251354e-02  -9.5653392428888553e-02  -9.9863915760978555e-02  -1.0269223575149387e-01  -9.5538761489756832e-02  -9.1395155163347383e-02  -8.9948915971883203e-02  -9.1438141676595142e-02  -9.5858630939308853e-02  -7.5007489697452259e-02  -7.7483738170623831e-02  -7.8816899116425115e-02  -7.7582774955900130e-02  -7.8925054836797862e-02  -7.9595244950161570e-02  -8.3876354068902190e-02  -8.1859345198177891e-02  -7.1791258007930001e-02  -6.8516267981529627e-02  -7.0976957096985940e-02  -7.0205574549643560e-02  -7.0415538121503238e-02  -8.4305960389681842e-02  -7.5685658338588910e-02  -8.0501020784921620e-02  -7.7770741173232405e-02  -7.0012574450326284e-02  -7.4483818338216087e-02  -8.0555188296811325e-02  -7.6755000666811471e-02  -8.3162855390442977e-02  -8.8101045966190755e-02  -8.8390418697094561e-02  -8.4660915820207239e-02  -1.1817533927102662e-01  -1.1389102766889520e-01  -1.1336805779330950e-01  -1.0704492340774414e-01  -1.1547104084030020e-01  -1.1493011799896503e-01  -1.1335440036536476e-01  -4.2803340621684095e-02  -4.0009285707655252e-02  -4.3234021579549205e-02  -4.1762426912806787e-02  -3.8759735233517799e-02  -1.1334953306730269e-01  -4.3667868567716879e-02  -4.1368610870063979e-02  -4.3737178091770239e-02  -4.4850537348090365e-02  -3.8854755053778292e-02  -4.2215908850572546e-02  -4.8814318001959442e-02  -4.0518504542463446e-02  -1.1887217726688021e-01  -1.2320457259075679e-01  -1.2663859191710949e-01  -1.2884389030670115e-01  -1.3115006802459944e-01  -1.3201580118610345e-01  -1.3111162634888374e-01  -1.3309603842063031e-01  -1.3232641319372729e-01  -1.1900082008711156e-01  -1.2339386525882226e-01  -1.2679804558111885e-01  -1.2897989457830022e-01  -1.3128997563893688e-01  -1.3208116666360659e-01  -1.3103153555941718e-01  -1.3323599323678240e-01  -1.3363273587335023e-01  -1.3402750689302276e-01  -1.3546690436299769e-01  -1.3385591096993010e-01  -1.3615301851263847e-01  -1.3229102670003523e-01  -1.3223582886688073e-01  -1.3343597842243915e-01  -1.3383027383921806e-01  -1.3530470520439655e-01  -1.3373520758966570e-01  -1.3599840031891997e-01  -1.3131759464824738e-01  -1.3220980899091903e-01  -1.3507888226094725e-01  -1.3236025688730882e-01  -1.3491950109302187e-01  -1.3109979015048914e-01  -1.3165764680056327e-01  -2.9644468712713611e-02  -3.2690661199004628e-02  -3.3155608487310889e-02  -3.2628229298156321e-02  -1.3797267007927311e-01  -1.3683293002673080e-01  -1.3229954995459658e-01  -1.3925496785671071e-01  -1.3755789857831485e-01  -1.3991103210599176e-01  -1.3709611669142502e-01  -1.3963046871347345e-01  -1.3777854297795780e-01  -1.3660805772766185e-01  -1.3908295891339295e-01  -1.3736552558134688e-01  -1.3978781416999797e-01  -1.3305412072046180e-01  -1.3694650063389388e-01  -1.3954213205752120e-01  -1.3500051348102954e-01  -1.3784613646061614e-01  -1.3511671160874567e-01  -1.3792408714972354e-01  -1.3142159078860297e-01  -1.2802620522665276e-01  -1.2883903550552006e-01  -1.3205816905522069e-01  -1.2916548389705396e-01  -1.2900940300523159e-01  -1.2356502535101294e-01  -1.2358244914227134e-01  -1.2859788765920413e-01  -1.2213882563302213e-01  -1.2653384216705654e-01  -1.1867659061782745e-01  -1.2238804125513936e-01  -1.2565580964276610e-01  -1.1296250844474084e-01  -4.1513684335794068e-02  -1.3117607317996854e-01  -1.3420672265296427e-01  -1.3979960494855889e-01  -1.3651332950255626e-01  -1.4117713059894790e-01  -1.3828563085544812e-01  -1.4226725251239908e-01  -1.3955557477479680e-01  -1.4316770015862679e-01  -1.4033979205097083e-01  -1.4381921769622569e-01  -1.4044967572303968e-01  -1.4389829415514424e-01  -1.3961929770864115e-01  -1.4286758671608049e-01  -1.3732812943918710e-01  -1.4018845558187065e-01  -1.3434601742640342e-01  -1.3310585625159538e-01  -1.3522257839534782e-01  -1.4129641808570534e-01  -1.3553740277976262e-01  -1.2721505067681099e-01  -1.2897331664558936e-01  -1.2330821102431269e-01  -1.4109469901007712e-01  -1.3462280340265151e-01  -1.1766516792866608e-01  -1.3122927639997869e-01  -1.2657447491956195e-01  -1.1077869700008020e-01  -1.4113621384195407e-01  -1.4450938892916829e-01  -4.1000864547760481e-02  -3.1252907594797846e-02  -3.2939030888830552e-02  -1.0811137862472280e-01  -3.6790979107344628e-02  -4.5739930411265194e-02  -1.2837795205572575e-01  -1.4076648607976813e-01  -1.2446065878281229e-01  -1.1576065299901056e-01  -1.1470113278559833e-01  -3.3430896338522316e-02  -1.2067688143196595e-01  -1.4381278044822826e-01  -1.3424294754113189e-01  -1.0117124006695456e-01  -1.2696843158642426e-01  -1.3139073347698191e-01  -1.1542101079391957e-01  -1.4506457799697353e-01  -1.2099353829236403e-01  -1.1604797749569913e-01  -1.2993892909751861e-01  -1.3433271915526862e-01  -1.2442247758208189e-01  -1.2092593415855621e-01  -1.4328713792219241e-01  -1.3989188742573921e-01  -1.4462874923915189e-01  -1.4386498768200170e-01  -1.0370051257748560e-01  -1.0869927213039446e-01  -1.1380690342895575e-01  -9.5974963976347694e-02  -9.4884871397576342e-02  -1.0004527319924834e-01  -1.0104100778043586e-01  -1.0519385422647273e-01  -8.7182746752339432e-02  -1.3813211503672562e-01  -1.0813555486311587e-01  -1.1411144533054431e-01  -1.1019661695258946e-01  -1.0708887886310031e-01  -1.4250557097409736e-01  -9.2686729913541294e-02  -1.4197780812058211e-01  -1.4129498327552736e-01  -1.0136159620634444e-01  -1.1039545724382643e-01  -9.1542670352463718e-02  -1.0196232853869304e-01  -1.2850915363513538e-01  -1.1518295099938153e-01  -1.3373438725106365e-01  -1.2096537584153730e-01  -1.0873122505878696e-01  -1.1462149671454260e-01  -1.0060318649806864e-01  -1.0613558666984378e-01  -9.1364135639143945e-02  -9.5533245944363382e-02  -8.4633002742768568e-02  -9.5720403878600521e-02  -1.2077883621503675e-01  -1.4297030792645574e-01  -8.9046914497498991e-02  -9.6331456127741272e-02  -1.0893222827931293e-01  -9.6841298941099885e-02  -8.2690445633956597e-02  -8.2364010231065377e-02  -1.2395842993905554e-01  -9.4837160784747271e-02  -8.7984170716659385e-02  -8.5087480433501783e-02  -7.9157775334778302e-02  -1.1965330013063545e-01  -1.1601970356277198e-01  -1.0048409457652219e-01  -6.7652948419507919e-02  -1.2099566839528916e-01  -1.2889910639863869e-01  -1.3062587153007948e-01  -8.7939653503021409e-02  -9.8828701720937578e-02  -1.0563603863084896e-01  -9.1052652958428085e-02  -1.1899409299385504e-01  -1.1145582444440774e-01  -9.5293315270251186e-02  -1.0211900342457726e-01  -1.1614837386502896e-01  -1.0760576572875806e-01  -1.1970097425723915e-01  -1.4186885632523899e-01  -1.1205184820065327e-01  -9.7865375756394132e-02  -1.3608602272908096e-01  -1.2851188181769141e-01  -1.2664462387734571e-01  -1.2449916117190851e-01  -7.5138195610705463e-02  -7.1006280963580970e-02  -1.9052605543581062e-02  -2.2387047308481112e-02  -2.1344257339794441e-02  -2.0271960749213110e-02  -7.0461168906516811e-02  -7.9354329298773077e-02  -8.5221608105447891e-02  -1.3263801609989259e-01  -1.3068306167235791e-01  -1.3241977011477687e-01  -1.3146371673259755e-01  -1.3626964915405054e-01  -1.2448618774332035e-01  -1.3174633462864996e-01  -1.2562455166763567e-01  -1.2749781446363137e-01  -1.1141457461959207e-01  -9.6735651563577232e-02  -1.1220589934540498e-01  -9.4800950832328451e-02  -1.1194484558758047e-01  -9.4173805630285851e-02  -1.0992486435564863e-01  -7.6808724057455618e-02  -7.1660867913085929e-02  -1.1958877999376041e-01  -1.0384204835965564e-01  -9.8765799557361297e-02  -7.4909182367295171e-02  -1.1257093611078747e-01  -9.7865722869444033e-02  -1.1123870150011714e-01  -9.3061743322976370e-02  -1.0498151241288906e-01  -8.7613507412234018e-02  -9.9606825752434403e-02  -1.1434455146580527e-01  -1.0979611918793258e-01  -9.2753292232600704e-02  -1.0408850360982966e-01  -8.5396821296104472e-02  -9.7866987606781322e-02  -1.1313938820480134e-01  -1.0652704939900991e-01  -8.7179379463325851e-02  -9.8544362196883353e-02  -8.0110098954689110e-02  -8.9114733358786655e-02  -1.0499048938187966e-01  -9.4270185978057489e-02  -1.0767032420069533e-01  -9.5325108907043821e-02  -8.2432169585112638e-02  -1.0684124956835186e-01  -9.2233680080920144e-02  -1.0234119232915245e-01  -1.1839015864849801e-01  -6.9497612682949822e-02  -8.4890164734925874e-02  -9.4135934308030883e-02  -7.4468499578412409e-02  -1.3714583728738414e-01  -1.3732591493507837e-01  -1.3275274033286202e-01  -9.1736065330882924e-02  -1.0743579777076799e-01  -8.8067741277555192e-02  -1.3326691395737891e-01  -1.2066525212820337e-01  -1.2365525817347317e-01  -9.2071759530822611e-02  -8.3540485247398391e-02  -8.7994044688897363e-02  -1.3080414792230588e-01  -1.3152396778355790e-01  -6.7275338942472646e-02  -1.2252866280227367e-01  -1.2610838134490351e-01  -6.5534059740151140e-02  -5.1978595102795948e-02  -7.7104173384893782e-02  -1.1051651166413876e-01  -1.3290550074555996e-01  -1.2889337784244975e-01  -1.1975502856399899e-01  -6.8545935687240836e-02  -6.1200427758783565e-02  -1.3489849025410372e-01  -1.3700869322805054e-01  -1.0246186412354728e-01  -8.2008069101272396e-02  -5.9160204822462349e-02  -5.3720910066927960e-02  -5.8214649248453189e-02  -1.0440389773746256e-01  -1.0658896420064537e-01  -8.3163481037570722e-02  -1.0803284609740924e-01  -1.1893580474586161e-01  -6.6276001746164881e-02  -6.5236490489483656e-02  -1.0299441851003992e-01  -8.4888817158204219e-02  -7.9886308133871195e-02  -1.1678085779134607e-01  -6.1183402208273424e-02  -7.2690316406889346e-02  -6.7284962076358895e-02  -1.2877174196696126e-01  -7.9684359369656649e-02  -6.7292912122301082e-02  -1.2489634345180216e-01  -1.4131539588525535e-01  -7.4136863223107918e-02  -5.3065509885857558e-02  -8.5041949837673769e-02  -7.7664578312876292e-02  -1.4080473015635769e-01  -1.3141069479031606e-01  -1.3587451389023819e-01  -6.3274527786115614e-02  -1.0296882691388932e-01  -9.2887702659530044e-02  -6.9175065841490718e-02  -1.1227561588919518e-01  -1.2304201883212072e-01  -1.2351498848304597e-01  -1.3037697631926359e-01  -1.3132567056643907e-01  -1.2489801939549867e-01  -1.2641854174934758e-01  -1.3425401426718694e-01  -1.3725855409840493e-01  -1.3014075393540023e-01  -1.3656432499411778e-01  -1.2619213404566945e-01  -1.2351528416496226e-01  -1.2422885308361467e-01  -4.1142701851902136e-02  -3.5464501403171950e-02  -5.7420249992416524e-02  -1.3877764283462937e-01  -4.8241813062390337e-02  -4.1395129665730841e-02  -7.0590427844458931e-02  -1.0982262030401235e-01  -1.2022523272568945e-01  -1.1374741240349961e-01  -1.2219489814856353e-01  -1.2644742088202585e-01  -1.2788631479770052e-01  -1.2483724517444837e-01  -1.2999406058469723e-01  -1.2814583288163436e-01  -1.3194363505406764e-01  -1.3072707529237554e-01  -1.2210878675442584e-01  -1.3253072025346568e-01  -1.3095813531815911e-01  -1.3173252724640369e-01  -1.1472373668537149e-01  -1.3842474390789000e-01  -1.1472771974452745e-01  -5.6890977164742902e-02  -4.5511974982562160e-02  -5.4776172304916208e-02  -4.8130622170372554e-02  -1.0956178022621073e-01  -1.2585506962464929e-01  -1.2457731767387102e-01  -7.8940308596618353e-02  -1.4254910267148396e-01  -1.4439877302855439e-01  -1.1833510766719132e-01  -1.4101968377099025e-01  -1.4538550514611101e-01  -1.4538746310725290e-01  -1.3960259289042826e-01  -1.3588870118218929e-01  -1.3393641068439019e-01  -1.2297765856482529e-01  -1.2773725969475438e-01  -1.2461877461455272e-01  -5.4845660536136653e-02  -7.4011802609232930e-02  -1.1799390411620954e-01  -5.5667696649618341e-02  -6.6676778575383441e-02  -1.4415066771934140e-01  -1.4081961655454098e-01  -1.4064093769847621e-01  -1.4191865117942171e-01  -1.2987617010002833e-01  -4.4921776716816159e-02  -4.0982512237252348e-02  -6.4930065988476865e-02  -4.1936707555912049e-02  -6.7544563809803698e-02  -1.2450095165253663e-01  -1.1589615611499121e-01  -1.1742487757195742e-01  -1.2736392118730075e-01  -1.2605907946496644e-01  -1.3996104212849489e-01  -1.4156501058958126e-01  -1.4246797063611177e-01  -4.5522031707145395e-02  -1.3661718831879618e-01  -3.5835144897010118e-02  -5.5804730631125093e-02  -1.3847768401479640e-01  -1.1332587755415870e-01  -3.7034832696856507e-02  -6.1305597685418982e-02  -1.3195317757110955e-01  -3.8154057551607057e-02  -3.7461719097642295e-02  -1.3236946271931199e-01  -6.2473328602374117e-02  -1.1793860830471596e-01  -4.4045232958427508e-02  -4.2322204673797048e-02  -6.9083347556618740e-02  -4.1898273913336503e-02  -4.0844260194620834e-02  -6.4403483740927567e-02  -6.5035594237842720e-02  -8.1688337299249805e-02  -1.1822847206109353e-01  -4.1962810557163034e-02  -6.6584950232556075e-02  -6.2624345434465253e-02  -3.9586348492770103e-02  -6.0597486860727086e-02  -3.7107450819631897e-02  -1.3965373098185033e-01  -1.3246826924461907e-01  -2.8423562106183013e-02  -3.9002585540248255e-02  -5.6409479191629149e-02  -4.2616633277949005e-02  -6.1155981039885052e-02  -2.7592045881011353e-02  -6.8577199654701992e-02  -4.4437701399497521e-02  -7.2660144923089157e-02  -4.5072646518477963e-02  -6.5508680156062468e-02  -2.7871011599042178e-02  -1.3477308039171312e-01  -6.5471372044638487e-02  -1.1275032369450359e-01  -1.2193253764190276e-01  -1.3009813531159625e-01  -2.7014029325546328e-02  -1.3029552425780194e-01  -3.8146868765423003e-02  -1.3027035897531239e-01  -2.7089947446712396e-02  -4.8923198471570263e-02  -1.2446478837337670e-01  -2.8469945256573113e-02  -1.4081569172371045e-01  -4.0116169687141177e-02  -1.2225000698966097e-01  -4.9394414868401633e-02  -9.4090768159869193e-02  -5.9835425697323100e-02  -1.2179425678615123e-01  -1.0752048670593913e-01  -9.2343421046251997e-02  -1.2190978473980298e-01  -1.2388686025078204e-01  -1.2849711199003638e-01  -1.2820349639304249e-01  -1.2454240094756114e-01  -1.4463333355264668e-01  -1.3205560146596013e-01  -1.1907560394821826e-01  -1.3982230491785227e-01  -8.0231287608884691e-02  -1.2947635561528509e-01  -1.1178158835344652e-01  -3.5130390435230426e-02  -1.3109260813349949e-01  -1.1222696069615061e-01  -1.3664488153961821e-01  -1.2276127925859691e-01  -8.7736544345114409e-02  -1.3230246217848493e-01  -1.3277157907484521e-01  -8.8676299698941460e-02  -1.2404328940759772e-01  -1.3090434791531011e-01  -7.2008366836160409e-02  -1.1542615306735418e-01  -1.3099555752018699e-01  -1.1261463274796386e-01  -1.2587438823715680e-01  -1.2008363487115824e-01  -5.4811438558718610e-02  -7.7670950575598210e-02  -8.0774042135230179e-02  -7.9210687371313954e-02  -9.6576846160579544e-02  -6.3276188918922366e-02  -1.2738526778113182e-01  -1.4033424454653243e-01  -1.2513114409021253e-01  -1.3052201650247389e-01  -3.9962295335613074e-02  -1.3271110322638388e-01  -9.1216312396967827e-02  -1.3269194731850970e-01  -1.3220202163782735e-01  -8.4234380609782569e-02  -2.2684798700008675e-02  -1.3424362397960340e-01  -1.0072761553455221e-01  -1.3589754146334004e-01  -8.7955294087039698e-02  -2.3035806530587486e-02  -1.1804177890736385e-01  -1.2760397954379207e-01  -7.0619129753330567e-02  -1.2953861267556074e-01  -1.9556666701239438e-02  -1.2843249716897337e-01  -1.1574240300587946e-01  -1.2147703591639707e-01  -1.2991833627876462e-01  -4.1408791595315679e-02  -6.9478284709636975e-02  -7.1405423575312654e-02  -2.6070064422773938e-02  -1.2518653064541116e-01  -1.2636924214421413e-01  -1.3224350808714425e-01  -1.3208368419414623e-01  -4.6956832148602537e-02  -1.1619352991530120e-01  -1.2265782029190408e-01  -1.4061136242759550e-01  -1.3324372340223334e-01  -7.2039265196031169e-02  -6.1845611046376273e-02  -1.2707137253187567e-01  -3.5871311581015065e-02  -1.3891050137293887e-0