<?xml version="1.0"?>
<VTKFile type="UnstructuredGrid"  version="0.1"  >
<UnstructuredGrid>
<Piece  NumberOfPoints="1251" NumberOfCells="2404">
<Points>
<DataArray  type="Float64"  NumberOfComponents="3"  format="ascii">0 0 0  0 1 0  1 1 0  1 0 0  1.1 -0.1 0  -0.1 -0.1 0  1.1 1.1 0  -0.1 1.1 0  0.5000462588637948 0.5000711483329862 0  0.2478272255377172 0.5436696601125803 0  0 0.9499999999997918 0  0 0.8999999999995836 0  0 0.8499999999996529 0  0 0.7999999999999998 0  0 0.7500000000003466 0  0 0.7000000000006934 0  0 0.6500000000010401 0  0 0.6000000000013869 0  0 0.5500000000017335 0  0 0.5000000000020587 0  0 0.4500000000018723 0  0 0.4000000000016644 0  0 0.3500000000014564 0  0 0.3000000000012483 0  0 0.2500000000010403 0  0 0.2000000000008322 0  0 0.1500000000006241 0  0 0.100000000000416 0  0 0.05000000000020799 0  0.04999999999989965 0 0  0.09999999999981467 0 0  0.1499999999997036 0 0  0.1999999999995579 0 0  0.2499999999994121 0 0  0.2999999999992664 0 0  0.3499999999991206 0 0  0.3999999999989749 0 0  0.4499999999988292 0 0  0.4999999999986943 0 0  0.5499999999988151 0 0  0.5999999999989468 0 0  0.6499999999990784 0 0  0.69999999999921 0 0  0.7499999999993417 0 0  0.7999999999994734 0 0  0.8499999999996051 0 0  0.8999999999997368 0 0  0.9499999999998684 0 0  1 0.04999999999989965 0  1 0.09999999999981467 0  1 0.1499999999997036 0  1 0.1999999999995579 0  1 0.2499999999994121 0  1 0.2999999999992664 0  1 0.3499999999991206 0  1 0.3999999999989749 0  1 0.4499999999988292 0  1 0.4999999999986943 0  1 0.5499999999988151 0  1 0.5999999999989468 0  1 0.6499999999990784 0  1 0.69999999999921 0  1 0.7499999999993417 0  1 0.7999999999994734 0  1 0.8499999999996051 0  1 0.8999999999997368 0  1 0.9499999999998684 0  0.9499999999997918 1 0  0.8999999999995836 1 0  0.8499999999996529 1 0  0.7999999999999998 1 0  0.7500000000003466 1 0  0.7000000000006934 1 0  0.6500000000010401 1 0  0.6000000000013869 1 0  0.5500000000017335 1 0  0.5000000000020587 1 0  0.4500000000018723 1 0  0.4000000000016644 1 0  0.3500000000014564 1 0  0.3000000000012483 1 0  0.2500000000010403 1 0  0.2000000000008322 1 0  0.1500000000006241 1 0  0.100000000000416 1 0  0.05000000000020799 1 0  -0.1 1.05000000000004 0  -0.1 1.000000000000079 0  -0.1 0.9500000000001624 0  -0.1 0.9000000000003032 0  -0.1 0.850000000000444 0  -0.1 0.8000000000005848 0  -0.1 0.7500000000007256 0  -0.1 0.7000000000008665 0  -0.1 0.6500000000010508 0  -0.1 0.6000000000012352 0  -0.1 0.5500000000014196 0  -0.1 0.500000000001539 0  -0.1 0.4500000000014195 0  -0.1 0.4000000000013 0  -0.1 0.3500000000011588 0  -0.1 0.3000000000010178 0  -0.1 0.2500000000008986 0  -0.1 0.2000000000007579 0  -0.1 0.1500000000006174 0  -0.1 0.1000000000005272 0  -0.1 0.05000000000040083 0  -0.1 2.671196597248127e-13 0  -0.1 -0.0499999999998666 0  -0.0500000000000906 -0.1 0  -1.730560139634463e-13 -0.1 0  0.04999999999975802 -0.1 0  0.09999999999961506 -0.1 0  0.1499999999994613 -0.1 0  0.199999999999302 -0.1 0  0.2499999999991446 -0.1 0  0.2999999999990088 -0.1 0  0.3499999999988296 -0.1 0  0.3999999999986936 -0.1 0  0.4499999999985143 -0.1 0  0.4999999999984002 -0.1 0  0.5499999999985247 -0.1 0  0.5999999999986493 -0.1 0  0.6499999999987955 -0.1 0  0.6999999999989417 -0.1 0  0.7499999999990659 -0.1 0  0.7999999999992116 -0.1 0  0.8499999999993573 -0.1 0  0.8999999999994526 -0.1 0  0.949999999999584 -0.1 0  0.9999999999997226 -0.1 0  1.049999999999861 -0.1 0  1.1 -0.0500000000000906 0  1.1 -1.730560139634463e-13 0  1.1 0.04999999999975802 0  1.1 0.09999999999961506 0  1.1 0.1499999999994613 0  1.1 0.199999999999302 0  1.1 0.2499999999991446 0  1.1 0.2999999999990088 0  1.1 0.3499999999988296 0  1.1 0.3999999999986936 0  1.1 0.4499999999985143 0  1.1 0.4999999999984002 0  1.1 0.5499999999985247 0  1.1 0.5999999999986493 0  1.1 0.6499999999987955 0  1.1 0.6999999999989417 0  1.1 0.7499999999990659 0  1.1 0.7999999999992116 0  1.1 0.8499999999993573 0  1.1 0.8999999999994526 0  1.1 0.949999999999584 0  1.1 0.9999999999997226 0  1.1 1.049999999999861 0  1.05000000000004 1.1 0  1.000000000000079 1.1 0  0.9500000000001624 1.1 0  0.9000000000003032 1.1 0  0.850000000000444 1.1 0  0.8000000000005848 1.1 0  0.7500000000007256 1.1 0  0.7000000000008665 1.1 0  0.6500000000010508 1.1 0  0.6000000000012352 1.1 0  0.5500000000014196 1.1 0  0.500000000001539 1.1 0  0.4500000000014195 1.1 0  0.4000000000013 1.1 0  0.3500000000011588 1.1 0  0.3000000000010178 1.1 0  0.2500000000008986 1.1 0  0.2000000000007579 1.1 0  0.1500000000006174 1.1 0  0.1000000000005272 1.1 0  0.05000000000040083 1.1 0  2.671196597248127e-13 1.1 0  -0.0499999999998666 1.1 0  0.2532928408298726 0.5679176430805719 0  0.2619153411901745 0.5912287345672964 0  0.2733960928708806 0.613278532239603 0  0.287340733214942 0.6338651098692569 0  0.3033392089629464 0.6529060054157582 0  0.3210451370913563 0.6703749697339574 0  0.3403123130770576 0.6861081535152409 0  0.3608211125010082 0.7001910909042603 0  0.3823587213614964 0.7126487715947697 0  0.4048251424921027 0.7233420942244768 0  0.4280969651522369 0.7321421258408152 0  0.4520148636629626 0.7389940044413812 0  0.4764055822042572 0.7438985523810557 0  0.5011282609213151 0.7466543083830917 0  0.5260000125894562 0.7469381134737004 0  0.5507671136595883 0.7446659298311457 0  0.5751478504028072 0.7397719236434165 0  0.5988280701600305 0.7321846878149846 0  0.6214706033509151 0.7219078085992117 0  0.6428608905052824 0.7092295376602334 0  0.6628124886434 0.6943896732540166 0  0.6810860521908975 0.6775275508778457 0  0.6974725892362506 0.6588268366992638 0  0.7118009994279892 0.6385046311024627 0  0.7239300325222591 0.6167977778389586 0  0.7336830300081509 0.5939242240795787 0  0.7408106526166474 0.5701027424418197 0  0.745300841678151 0.5456432919297626 0  0.7472246123670936 0.5208466325458022 0  0.7465774027252918 0.4959848493001597 0  0.7433472599881507 0.4713201916278029 0  0.7379849443910713 0.4470275931020453 0  0.730635776090233 0.4232583443450219 0  0.7213774482367845 0.400164704481727 0  0.7102983011751609 0.3778868209254934 0  0.6975108691412487 0.3565444290261658 0  0.6831206384375919 0.3362513197050251 0  0.6670839494743807 0.3172366320903353 0  0.6492697810980324 0.2998788967216879 0  0.6298478542928312 0.2843494928058777 0  0.6089414325121126 0.2708896986851946 0  0.5866496157168446 0.2598901401564904 0  0.563141572883884 0.2518246284202083 0  0.5387580945305082 0.2470041741607072 0  0.5139661438946908 0.2452225941943616 0  0.4891401764476087 0.2464560132062162 0  0.4646425261461774 0.2506688207326507 0  0.4407168676905819 0.2574399340050771 0  0.4174833019639601 0.2663115285375495 0  0.3950732255498202 0.2770949875583277 0  0.3737363240863213 0.2898767100466407 0  0.3535369305306301 0.3043943133736728 0  0.3346098860536831 0.3205390276796733 0  0.3171236914739308 0.3382313894179051 0  0.3012397514281786 0.3573759756602983 0  0.287079475588056 0.3778269715160962 0  0.2746814820817646 0.3993894075729155 0  0.2643112334743629 0.4219954018991334 0  0.2559399004688902 0.4454120307425236 0  0.2497489256603074 0.4694936811576468 0  0.2461092080201119 0.4940834909390933 0  0.2454194343585289 0.5189299765911524 0  0.5467816853363873 0.2705209010292802 0  0.625417446733985 0.3092236809571877 0  0.4580721528256205 0.2731129174160077 0  0.2701696001941969 0.5505421843797579 0  0.3122996976370303 0.6326412287292508 0  0.2736962838065429 0.4628329150253913 0  0.6573494761236126 0.6701374914310698 0  0.7099073553448755 0.5968268436681429 0  0.7269207414071575 0.5096274386837092 0  0.5813300851991658 0.7155177970487572 0  0.4902085907388492 0.722100272379378 0  0.3123126434025071 0.3798808067840051 0  0.3732571469632164 0.3108287739489206 0  0.4240885672338689 0.7075806940693424 0  0.6846031553516368 0.3770079988781319 0  0.7151929767642572 0.4410796040567831 0  0.3626214210119597 0.6753936855545314 0  0.3402530783394718 0.3435968302520596 0  0.415522388399869 0.2901234259991014 0  0.2890769965947794 0.4196796768512962 0  0.6586211282533126 0.3406242124587233 0  0.6874185798708199 0.6359159308035285 0  0.5349280081880261 0.7258232062586352 0  0.7231351764601545 0.5544728709825386 0  0.6223119491384661 0.6980420000785809 0  0.5026305676621987 0.2673322467243268 0  0.2667604144352236 0.5058796919499943 0  0.2856789632902871 0.5928919132104651 0  0.592265448424643 0.2841044406762674 0  0.3828188902821008 0.6892074507622316 0  0.3858802382584133 0.6651796929959228 0  0.3647389433129258 0.6504965415347345 0  0.3889845632878314 0.6403033435136591 0  0.3655290085042125 0.6247317448587804 0  0.3948613606460552 0.6119735538445001 0  0.4199546737120709 0.6297183041266734 0  0.3688993550179424 0.5971975683119235 0  0.3947613997652476 0.5820561378720669 0  0.3618348696324811 0.563392348905321 0  0.4299725503587774 0.5936189504912633 0  0.454069521401806 0.6351972083794886 0  0.4794791706733988 0.5973179162799502 0  0.4902102086974595 0.637544116573313 0  0.5215931518976402 0.6076630486566652 0  0.5521966339102049 0.6433456944697523 0  0.5672012784611825 0.6066948976678735 0  0.4108050490510394 0.5467223391041041 0  0.3730574755188404 0.5199909081975429 0  0.588529176289652 0.6369617958010044 0  0.6110905321582271 0.6114390860986998 0  0.5914252930338839 0.5727158154678342 0  0.6384178622174496 0.5786683413607698 0  0.6166468425624811 0.5406434381746504 0  0.6546865652725909 0.5448053159920488 0  0.6439127254136555 0.5059214559005456 0  0.6004103988445405 0.502628721189866 0  0.6305367742803474 0.4669406380562595 0  0.5840033947996378 0.4631864935261703 0  0.61580947894834 0.4287794567167436 0  0.5690033202690179 0.422985652470999 0  0.5999414698965632 0.3899425028851716 0  0.5532188268571615 0.384103079473929 0  0.5804396729707766 0.356478472251422 0  0.5437475629842394 0.3452569151968226 0  0.516444432948394 0.3765440507224206 0  0.5013728621489411 0.3377497167961674 0  0.4802627640449073 0.3680251097895105 0  0.4659995442611625 0.3367032055382573 0  0.44081294847536 0.3582226912710029 0  0.455954053119
[...]
<PointData  Scalars="u"> 
<DataArray  type="Float64"  Name="u"  format="ascii">0.0000000000000000e+00  0.0000000000000000e+00  0.0000000000000000e+00  0.0000000000000000e+00  0.0000000000000000e+00  0.0000000000000000e+00  0.0000000000000000e+00  0.0000000000000000e+00  7.2872903725623683e-01  3.9409918011264455e-01  0.0000000000000000e+00  0.0000000000000000e+00  0.0000000000000000e+00  0.0000000000000000e+00  0.0000000000000000e+00  0.0000000000000000e+00  0.0000000000000000e+00  0.0000000000000000e+00  0.0000000000000000e+00  0.0000000000000000e+00  0.0000000000000000e+00  0.0000000000000000e+00  0.0000000000000000e+00  0.0000000000000000e+00  0.0000000000000000e+00  0.0000000000000000e+00  0.0000000000000000e+00  0.0000000000000000e+00  0.0000000000000000e+00  0.0000000000000000e+00  0.0000000000000000e+00  0.0000000000000000e+00  0.0000000000000000e+00  0.0000000000000000e+00  0.0000000000000000e+00  0.0000000000000000e+00  0.0000000000000000e+00  0.0000000000000000e+00  0.0000000000000000e+00  0.0000000000000000e+00  0.0000000000000000e+00  0.0000000000000000e+00  0.0000000000000000e+00  0.0000000000000000e+00  0.0000000000000000e+00  0.0000000000000000e+00  0.0000000000000000e+00  0.0000000000000000e+00  0.0000000000000000e+00  0.0000000000000000e+00  0.0000000000000000e+00  0.0000000000000000e+00  0.0000000000000000e+00  0.0000000000000000e+00  0.0000000000000000e+00  0.0000000000000000e+00  0.0000000000000000e+00  0.0000000000000000e+00  0.0000000000000000e+00  0.0000000000000000e+00  0.0000000000000000e+00  0.0000000000000000e+00  0.0000000000000000e+00  0.0000000000000000e+00  0.0000000000000000e+00  0.0000000000000000e+00  0.0000000000000000e+00  0.0000000000000000e+00  0.0000000000000000e+00  0.0000000000000000e+00  0.0000000000000000e+00  0.0000000000000000e+00  0.0000000000000000e+00  0.0000000000000000e+00  0.0000000000000000e+00  0.0000000000000000e+00  0.0000000000000000e+00  0.0000000000000000e+00  0.0000000000000000e+00  0.0000000000000000e+00  0.0000000000000000e+00  0.0000000000000000e+00  0.0000000000000000e+00  0.0000000000000000e+00  0.0000000000000000e+00  0.0000000000000000e+00  0.0000000000000000e+00  0.0000000000000000e+00  0.0000000000000000e+00  0.0000000000000000e+00  0.0000000000000000e+00  0.0000000000000000e+00  0.0000000000000000e+00  0.0000000000000000e+00  0.0000000000000000e+00  0.0000000000000000e+00  0.0000000000000000e+00  0.0000000000000000e+00  0.0000000000000000e+00  0.0000000000000000e+00  0.0000000000000000e+00  0.0000000000000000e+00  0.0000000000000000e+00  0.0000000000000000e+00  0.0000000000000000e+00  0.0000000000000000e+00  0.0000000000000000e+00  0.0000000000000000e+00  0.0000000000000000e+00  0.0000000000000000e+00  0.0000000000000000e+00  0.0000000000000000e+00  0.0000000000000000e+00  0.0000000000000000e+00  0.0000000000000000e+00  0.0000000000000000e+00  0.0000000000000000e+00  0.0000000000000000e+00  0.0000000000000000e+00  0.0000000000000000e+00  0.0000000000000000e+00  0.0000000000000000e+00  0.0000000000000000e+00  0.0000000000000000e+00  0.0000000000000000e+00  0.0000000000000000e+00  0.0000000000000000e+00  0.0000000000000000e+00  0.0000000000000000e+00  0.0000000000000000e+00  0.0000000000000000e+00  0.0000000000000000e+00  0.0000000000000000e+00  0.0000000000000000e+00  0.0000000000000000e+00  0.0000000000000000e+00  0.0000000000000000e+00  0.0000000000000000e+00  0.0000000000000000e+00  0.0000000000000000e+00  0.0000000000000000e+00  0.0000000000000000e+00  0.0000000000000000e+00  0.0000000000000000e+00  0.0000000000000000e+00  0.0000000000000000e+00  0.0000000000000000e+00  0.0000000000000000e+00  0.0000000000000000e+00  0.0000000000000000e+00  0.0000000000000000e+00  0.0000000000000000e+00  0.0000000000000000e+00  0.0000000000000000e+00  0.0000000000000000e+00  0.0000000000000000e+00  0.0000000000000000e+00  0.0000000000000000e+00  0.0000000000000000e+00  0.0000000000000000e+00  0.0000000000000000e+00  0.0000000000000000e+00  0.0000000000000000e+00  0.0000000000000000e+00  0.0000000000000000e+00  0.0000000000000000e+00  0.0000000000000000e+00  0.0000000000000000e+00  0.0000000000000000e+00  0.0000000000000000e+00  0.0000000000000000e+00  0.0000000000000000e+00  0.0000000000000000e+00  0.0000000000000000e+00  0.0000000000000000e+00  0.0000000000000000e+00  0.0000000000000000e+00  0.0000000000000000e+00  3.9450285598398555e-01  3.9599003094829838e-01  3.9958630886174729e-01  4.0345927070916698e-01  4.0700676745478709e-01  4.1040800136035904e-01  4.1352367350361996e-01  4.1563774779378515e-01  4.1633861742797240e-01  4.1633126261033770e-01  4.1554248897150231e-01  4.1368817367150373e-01  4.1147726967541431e-01  4.0878676441648815e-01  4.0603470456615687e-01  4.0391431208231482e-01  4.0238288962553426e-01  4.0130621872095745e-01  4.0081539244275688e-01  4.0086495397868083e-01  4.0111343883650263e-01  4.0126314411597636e-01  4.0138073316741146e-01  4.0165456705299418e-01  4.0174975419295783e-01  4.0187985560569067e-01  4.0284461042500441e-01  4.0451696480809424e-01  4.0641515851878990e-01  4.0872253738360032e-01  4.1147752646502800e-01  4.1380931942227761e-01  4.1539679736764273e-01  4.1643677849256644e-01  4.1655112662669708e-01  4.1517604423621862e-01  4.1286250926368090e-01  4.0997362311032626e-01  4.0594345318399672e-01  4.0262404839813698e-01  3.9879922772335430e-01  3.9583129376686343e-01  3.9412189143334941e-01  3.9396484591465863e-01  3.9521539948573420e-01  3.9762621853544655e-01  4.0141177425216695e-01  4.0547225292653344e-01  4.0888924765419304e-01  4.1181821860060203e-01  4.1341697918696069e-01  4.1530013657127746e-01  4.1610237946328399e-01  4.1582166953668698e-01  4.1455438343884726e-01  4.1362206979767036e-01  4.1110925452414665e-01  4.0764244371782760e-01  4.0463727680447364e-01  4.0076397519329560e-01  3.9739181758236841e-01  3.9510538758120656e-01  4.5175072229236712e-01  4.6354744974505668e-01  4.5681276214135141e-01  4.4892566983307081e-01  4.5891688336262171e-01  4.6028850450234599e-01  4.5829460433851688e-01  4.5733191292815378e-01  4.6157836036376132e-01  4.5847072440969405e-01  4.7213967064458806e-01  4.7229926521209159e-01  4.5997461951872765e-01  4.7350231187051817e-01  4.7329543117710876e-01  4.6862740359793215e-01  4.7154491085771938e-01  4.6987539146842622e-01  4.6534417620715168e-01  4.6684471059956895e-01  4.6878031462914438e-01  4.5835635766973576e-01  4.5971231245634520e-01  4.5813990415202732e-01  4.5479999898249546e-01  4.5422134063850111e-01  4.5273157153613913e-01  4.5239757525294377e-01  4.4973352402383299e-01  4.7084829087485347e-01  5.1856500268925732e-01  5.1646129376998406e-01  5.6136589473003962e-01  5.5406834391095949e-01  6.0520041202884034e-01  6.0618777990015549e-01  5.9025834942213806e-01  6.3519024585040229e-01  6.1018358697838826e-01  6.5734207786859400e-01  6.2166422889366879e-01  6.7639182889816996e-01  6.2863992853619011e-01  6.6649548434936667e-01  6.0856923271642371e-01  6.4673023808926711e-01  6.7665029656694853e-01  6.4365027902277805e-01  5.9208142188945401e-01  6.0230595896671313e-01  6.5832603920398514e-01  5.9914198479355396e-01  6.4955580248023859e-01  5.9459967976784645e-01  6.2055601401940175e-01  6.7552496303930731e-01  6.3358155403670469e-01  6.8412393267808769e-01  6.3205788517684725e-01  6.7273320078982990e-01  6.1434869497620959e-01  6.4466120874854704e-01  5.8925669110737056e-01  5.9648309088108653e-01  6.4848672462705348e-01  5.9380407530209700e-01  6.3639407025510553e-01  5.8485778078131001e-01  6.0623966537441532e-01  6.6156335230058361e-01  6.2155716445511167e-01  6.7422177764377644e-01  6.2412787393875657e-01  5.8888276700061204e-01  5.9839607311912457e-01  6.8718892324279246e-01  5.9844362934126250e-01  5.8793905503714905e-01  5.9034682590558052e-01  5.7780910243810524e-01  6.1106328151017930e-01  5.5757799240498762e-01  5.4068590124957461e-01  5.6539966550281207e-01  5.2691768439079323e-01  5.4673063540715172e-01  5.5661287563296125e-01  5.5853314567610757e-01  5.7630692374922676e-01  5.4440290495389720e-01  5.5762727467241380e-01  5.5358308725200023e-01  5.6912528691773612e-01  5.4910478570748578e-01  6.9744677210133144e-01  5.8840665142032389e-01  5.4954224857883349e-01  5.2914896212071039e-01  5.5521578495007762e-01  5.3465417834564721e-01  5.2290543379025212e-01  5.3384956328738575e-01  5.1035867507483834e-01  5.3178631734059101e-01  5.4630450014812615e-01  5.0727268972153161e-01  5.3499783713410609e-01  5.3587006709987284e-01  6.9522918188299099e-01  5.2979980598374565e-01  5.4284209964940267e-01  5.4389228196640649e-01  5.1355425383430731e-01  5.7188278104549428e-01  5.3958364290817928e-01  5.2726527746579677e-01  5.6605141027329120e-01  5.2877389933540708e-01  4.9868689418916801e-01  4.9984318385923049e-01  5.0243124182876564e-01  5.0391505049685648e-01  5.9150473127103620e-01  5.4892788241573764e-01  5.1309835760673350e-01  6.4313234612488834e-01  7.1126920282468076e-01  4.8824079056051417e-01  7.1174456251709040e-01  6.8875228458483728e-01  5.2298033763631147e-01  4.9861022803811716e-01  6.9188990713059273e-01  6.6823807533133517e-01  5.6378691962526217e-01  4.6667340150702996e-01  4.6942075141483042e-01  5.2296056406341396e-01  4.6895176643294656e-01  4.6894414845022775e-01  4.9934400284094488e-01  5.0245729484980739e-01  4.6629833159395762e-01  4.6870130199444643e-01  4.6765767558076621e-01  4.5968721625306880e-01  4.7665536164520478e-01  4.7267342364910647e-01  4.6562964085558095e-01  5.1230667995807011e-01  5.1253354164072118e-01  5.0460344851447980e-01  5.1002773268532120e-01  5.0602226574329356e-01  5.6151022201191825e-01  4.6166811170688893e-01  5.1279975254489507e-01  4.5641276387262369e-01  5.0459357699121876e-01  4.5991930578804052e-01  4.6024787669303679e-01  4.6227263323594830e-01  5.0585215294603281e-01  5.3883706632765616e-01  4.5690291025072466e-01  5.1155004545188765e-01  4.5713445836652300e-01  5.0619827177855248e-01  5.2178676985851180e-01  4.5530995418530062e-01  4.5523373863004357e-01  4.5615206270116287e-01  5.0487052078369365e-01  7.1378107002073976e-01  4.5082816097913364e-01  7.1094816671357863e-01  4.5178372352724988e-01  4.9698102216175388e-01  4.5412516130771424e-01  4.4856431136071573e-01  4.5526399638659326e-01  4.9862701777860807e-01  5.4563156332117080e-01  6.9324685211956905e-01  7.1629641413509870e-01  5.0186516319795949e-01  4.6507465637247675e-01  4.5474453672540155e-01  5.1072173409821575e-01  4.6211700348390522e-01  6.8018392034903574e-01  5.4641831528470597e-01  5.3958444780703274e-01  5.4388961176003381e-01  4.5343289503324846e-01  5.1252531113611521e-01  5.0199579091308244e-01  4.9337830155002660e-01  5.0056605438174318e-01  4.9455455623964401e-01  5.7422586012810428e-01  5.1428974462067534e-01  5.4610480070615797e-01  5.0640574996607524e-01  5.0302229261681408e-01  4.9587223858086382e-01  5.4016189372209267e-01  5.1176646672986525e-01  5.0913953034467951e-01  4.9400970665391286e-01  4.9903573012146979e-01  5.4608300341109250e-01  7.1842953549503974e-01  4.9421745734139094e-01  7.1495243061945202e-01  5.5341837436370456e-01  4.5418111127453908e-01  5.5676873937018845e-01  4.4285232328353036e-01  5.7630897005839332e-01  5.6475605872754508e-01  5.9025422527910154e-01  5.2853303589093248e-01  5.0773854800827645e-01  5.7282090916502626e-01  5.8206776259627624e-01  5.8474078634047255e-01  4.9054569238214640e-01  5.5670202780845590e-01  5.4869180282359853e-01  5.3863273688667457e-01  5.0688334435057858e-01  4.5385520043711797e-01  5.4052265323508164e-01  5.6653698772095096e-01  4.9033292892214686e-01  4.9444639782086897e-01  4.9951134762479649e-01  5.5591441612406856e-01  4.9409920419937425e-01  5.7410874768256981e-01  5.4811607921725325e-01  5.6817143024974193e-01  5.0589509222201057e-01  5.6370167378632374e-01  5.7653447867398855e-01  5.3979516267297212e-01  5.6846166215858951e-01  4.9521077816622228e-01  5.7483576703556349e-01  5.6629094598951724e-01  6.0876988000430177e-01  5.0786389915952057e-01  3.6195249774601795e-01  3.5942750310420268e-01  3.5537814348580021e-01  3.4846468899238625e-01  3.5833673724240317e-01  3.6295629096887566e-01  3.4280571922087066e-01  3.6044865931051406e-01  3.5710947600335680e-01  3.5347096811921397e-01  3.4086323941558749e-01  3.4194597633203305e-01  3.4119851206760898e-01  3.4347433451041831e-01  3.3862170553760085e-01  3.3828361030174031e-01  3.4476358904606197e-01  1.9554365133104486e-02  3.6146091363143146e-01  2.0634989720945910e-02  2.0056586912159217e-02  2.0737160463569552e-02  2.0711955018401222e-02  1.9902147705221057e-02  3.5210758310669088e-01  2.0234980077409280e-02  3.4491925844036359e-01  3.4997467849486358e-01  1.9491111299987388e-02  3.4425532449653629e-01  3.5924701268970449e-01  3.4794283071655741e-01  3.5120594938241123e-01  4.6215787742704420e-02  4.4737571927070473e-02  3.8771604039009450e-02  4.2805551267733173e-02  4.8269052917561554e-02  5.0081796204885905e-02  4.5850364684696894e-02  4.1360427737878756e-02  5.4008683970465848e-02  4.7744129787267942e-02  4.8236248216803820e-02  5.2134588638850621e-02  5.6073325464701196e-03  6.7236214642903839e-03  5.8161976570711149e-03  5.1662321334890130e-03  4.7308248872214862e-03  4.6585076465150543e-03  4.7839995484660336e-03  6.8654825799097357e-03  3.3668473053845938e-01  2.9021027381012299e-01  2.8831846181478260e-01  2.4623531398906831e-01  2.4627037644118693e-01  2.4171138821534810e-01  2.0360474612270948e-01  2.0922910474486012e-01  1.5982348006275512e-01  1.5699065886492303e-01  2.0016771820750534e-01  1.5148787401451683e-01  1.9750591638823506e-01  1.4355691237823517e-01  1.7740602442508871e-01  1.3246703508504207e-01  1.6061412399955077e-01  1.1063487819820203e-01  1.3914187207981074e-01  9.7037913849129492e-02  1.1674534321265864e-01  1.6279561621698024e-01  1.3489728389165045e-01  1.8272538516626943e-01  1.4901991472505335e-01  7.8340828928628994e-02  2.0541473914061925e-01  1.6048943321985237e-01  1.1529787153390247e-01  1.0190971860118446e-01  2.1030712340573832e-01  1.6575262783726510e-01  2.2210823759935996e-01  1.6779164190720491e-01  2.2280872382443287e-01  1.6429579679441947e-01  2.0795970098899028e-01  2.1204598147620179e-01  6.2309244482422851e-02  4.7001813609095694e-02  1.6484830297666364e-01  5.9192539473301657e-02  2.1095485201882896e-01  1.1649275771830434e-01  1.5696792618256561e-01  2.0375482620887136e-01  1.2314422848607004e-01  1.4511881084188152e-01  1.8041799543585260e-01  1.2556995475107816e-01  1.5593887623549796e-01  2.1052968249303924e-01  1.9742176244288717e-01  1.3348462558707805e-01  1.6605808990297416e-01  2.2190397615801488e-01  1.9418684268113304e-01  1.4104268948688117e-01  1.5909381232982933e-01  1.1530651023528410e-01  1.3120597154276645e-01  1.8338477002106043e-01  1.4532200801328821e-01  1.9559742023542526e-01  1.6107439538501422e-01  1.1487837458670716e-01  1.1878924029511727e-01  1.5765359299376736e-01  1.2037395347721863e-01  1.5678597403329431e-01  8.2467240004153980e-02  1.1678922751961651e-01  1.5880038620337456e-01  1.0787651635777938e-01  1.3989384486672601e-01  1.9629766022576337e-01  8.9754157767247530e-02  2.6774553884682367e-01  9.3608074773090508e-02  1.2159322132378478e-01  1.7254936181507632e-01  1.5099287311593193e-01  2.1330036294578858e-01  1.8183505726476790e-01  1.2693662869661504e-01  1.5327395339453581e-01  2.0958903567655635e-01  1.8627178542258546e-01  7.3618910713507749e-02  9.4022911940995241e-02  2.2842085748969471e-01  7.8270973660543142e-02  2.5485603078628372e-01  2.4865359889607658e-01  2.3837401356940874e-01  1.9938209641407326e-01  2.5384353950178223e-01  2.2321848449939119e-01  1.6183832548333157e-01  1.7587451001812257e-01  2.2824653187921895e-01  1.8469822085513049e-01  2.3472189703149676e-01  1.9656758512367006e-01  1.4561336716620277e-01  1.4880805257106899e-01  1.8996470987761807e-01  1.4787529256206841e-01  1.8629647233691379e-01  1.4304281628667670e-01  1.7946666636699296e-01  1.3428490297193965e-01  1.6604084900279070e-01  1.2093357336759376e-01  1.4800454198367621e-01  9.4064770292038191e-02  8.1947803127217445e-02  1.0284524171217677e-01  6.0721889247828474e-02  1.9852078816681012e-01  1.7700404453594010e-01  1.2762341771117622e-01  1.5828754442450751e-01  1.0585144449291119e-01  2.2471270575623406e-01  1.2296865058319628e-01  1.7231723473952595e-01  1.3780371774185321e-01  1.8985003236908246e-01  1.5042725037011340e-01  2.3041600819092670e-01  7.1141632819738343e-02  2.1029165888435492e-01  1.6053012509418069e-01  4.9817933062572074e-02  2.1384458495074918e-01  1.7468295869812070e-01  2.1728409882807609e-01  1.6818520806424866e-01  2.1738953684546264e-01  1.6098671375186835e-01  2.0416083467869450e-01  1.5339733335484224e-01  1.9861878003641167e-01  1.4228652042777343e-01  1.7327888954396573e-01  1.2432528603045220e-01  1.5305219430989697e-01  1.0712405908004821e-01  1.3050192815180947e-01  1.7986735866681658e-01  1.5237138057423383e-01  1.0726154439747625e-01  1.2435109863418389e-01  8.4225164704727767e-02  9.6718600534677970e-02  1.3817626403685498e-01  1.0575332371330864e-01  1.4740174814878559e-01  1.1118800999858783e-01  1.5176787247905718e-01  1.8119188297796732e-01  6.2182720456942606e-02  1.0889724835574277e-01  1.5137286683391885e-01  1.9821728877608727e-01  2.0144619419908172e-01  1.4741134730414651e-01  1.8705868809681098e-01  1.3749792076724701e-01  1.7690951197008323e-01  1.2372943928026572e-01  2.0582615695278172e-01  5.1604984898443874e-02  2.3452242162529452e-01  7.5584630480442630e-02  3.4742897198871255e-02  2.2600900020454454e-01  3.3927482698192936e-02  8.1220961092831029e-02  4.2553210987040978e-02  1.2491294581137322e-01  2.3257585196697034e-01  2.3500662951679288e-01  2.4625206634218530e-01  7.7939085991526214e-02  1.1491600436856209e-01  1.1742354719781041e-01  2.4659575848282611e-01  8.6020006816952987e-02  2.7852866754737177e-01  2.5963164237800079e-01  2.8728249148093116e-01  2.6416951891917362e-01  2.2969061195326063e-01  2.4770914814999434e-01  2.4589828888098939e-01  7.2073795252327516e-02  2.6032222940120059e-01  1.2495389920164675e-01  2.7543510907633284e-01  3.0033954789825185e-01  2.6689669937821714e-01  1.7206144160058479e-01  3.4811576270362229e-02  2.1642022324645991e-02  2.5112742364724550e-01  2.8068111634065956e-01  2.6033395128004849e-01  1.1507030262879502e-01  1.1285220307712460e-01  2.9327309647621996e-01  2.5893369635605551e-01  2.6035946525085041e-01  2.5828734119661484e-01  2.6113090190789173e-01  2.6474021923082236e-01  2.7877716841939087e-01  2.5187340611046444e-01  2.7821774989109593e-01  3.0972591471169986e-01  2.7652718243501156e-01  2.8237648294605217e-01  2.6453886415340661e-01  7.5642566432058564e-02  2.3558641966338681e-01  2.4893286947713886e-01  2.8667308169711775e-01  3.1083812342759826e-01  2.8054912206431382e-01  2.4391922654276521e-01  9.8950853862570284e-02  3.1565723877572427e-01  2.8046835251720986e-01  9.4068267243190382e-02  1.0798529662047372e-01  7.8332229938930381e-02  2.6303330427963883e-02  4.6954026676955536e-02  5.6086603704345192e-02  6.6044466546719444e-02  4.6771564221182699e-02  2.8636041482160712e-01  2.8922332719998334e-01  2.9160722420442931e-01  2.9489720947241832e-01  2.5347489915727900e-01  2.9472301982868848e-01  2.6476465874791899e-01  3.1097288495372361e-01  2.4239908594256135e-01  2.7616427935282456e-01  2.2217656914853051e-01  2.7615492048686319e-01  3.4639601013906801e-01  3.1467350370040820e-01  3.4553104686961711e-01  2.4258568974543104e-02  3.4090989285410378e-01  2.9487155954543259e-01  2.9514592721341543e-01  2.5001795014310685e-01  9.3756392478828943e-02  3.4144029457186281e-01  2.9087745670649728e-01  3.2919423752004368e-01  2.7641290469624841e-01  7.6977668973164839e-02  2.9379398179165311e-01  2.2761874441245589e-01  2.9053583658966037e-01  3.3840874365413837e-01  2.9548528406692054e-01  2.9541538873847728e-01  3.4216307909066607e-01  3.3903324611843666e-01  2.9543371919201955e-01  2.8584590615934691e-01  3.4926738028146825e-01  2.6436186342027851e-01  3.0785408213365995e-01  3.0154378253340280e-01  3.4315044521991112e-01  2.9086938067602774e-01  3