<?xml version="1.0"?>
<VTKFile type="UnstructuredGrid"  version="0.1"  >
<UnstructuredGrid>
<Piece  NumberOfPoints="1183" NumberOfCells="2268">
<Points>
<DataArray  type="Float64"  NumberOfComponents="3"  format="ascii">0 0 0  0 1 0  1 1 0  1 0 0  1.1 -0.1 0  -0.1 -0.1 0  1.1 1.1 0  -0.1 1.1 0  0.5006693097591586 0.5005320983679102 0  0.2459084072683014 0.5452316684521487 0  0 0.9499999999997918 0  0 0.8999999999995836 0  0 0.8499999999996529 0  0 0.7999999999999998 0  0 0.7500000000003466 0  0 0.7000000000006934 0  0 0.6500000000010401 0  0 0.6000000000013869 0  0 0.5500000000017335 0  0 0.5000000000020587 0  0 0.4500000000018723 0  0 0.4000000000016644 0  0 0.3500000000014564 0  0 0.3000000000012483 0  0 0.2500000000010403 0  0 0.2000000000008322 0  0 0.1500000000006241 0  0 0.100000000000416 0  0 0.05000000000020799 0  0.04999999999989965 0 0  0.09999999999981467 0 0  0.1499999999997036 0 0  0.1999999999995579 0 0  0.2499999999994121 0 0  0.2999999999992664 0 0  0.3499999999991206 0 0  0.3999999999989749 0 0  0.4499999999988292 0 0  0.4999999999986943 0 0  0.5499999999988151 0 0  0.5999999999989468 0 0  0.6499999999990784 0 0  0.69999999999921 0 0  0.7499999999993417 0 0  0.7999999999994734 0 0  0.8499999999996051 0 0  0.8999999999997368 0 0  0.9499999999998684 0 0  1 0.04999999999989965 0  1 0.09999999999981467 0  1 0.1499999999997036 0  1 0.1999999999995579 0  1 0.2499999999994121 0  1 0.2999999999992664 0  1 0.3499999999991206 0  1 0.3999999999989749 0  1 0.4499999999988292 0  1 0.4999999999986943 0  1 0.5499999999988151 0  1 0.5999999999989468 0  1 0.6499999999990784 0  1 0.69999999999921 0  1 0.7499999999993417 0  1 0.7999999999994734 0  1 0.8499999999996051 0  1 0.8999999999997368 0  1 0.9499999999998684 0  0.9499999999997918 1 0  0.8999999999995836 1 0  0.8499999999996529 1 0  0.7999999999999998 1 0  0.7500000000003466 1 0  0.7000000000006934 1 0  0.6500000000010401 1 0  0.6000000000013869 1 0  0.5500000000017335 1 0  0.5000000000020587 1 0  0.4500000000018723 1 0  0.4000000000016644 1 0  0.3500000000014564 1 0  0.3000000000012483 1 0  0.2500000000010403 1 0  0.2000000000008322 1 0  0.1500000000006241 1 0  0.100000000000416 1 0  0.05000000000020799 1 0  -0.1 1.05000000000004 0  -0.1 1.000000000000079 0  -0.1 0.9500000000001624 0  -0.1 0.9000000000003032 0  -0.1 0.850000000000444 0  -0.1 0.8000000000005848 0  -0.1 0.7500000000007256 0  -0.1 0.7000000000008665 0  -0.1 0.6500000000010508 0  -0.1 0.6000000000012352 0  -0.1 0.5500000000014196 0  -0.1 0.500000000001539 0  -0.1 0.4500000000014195 0  -0.1 0.4000000000013 0  -0.1 0.3500000000011588 0  -0.1 0.3000000000010178 0  -0.1 0.2500000000008986 0  -0.1 0.2000000000007579 0  -0.1 0.1500000000006174 0  -0.1 0.1000000000005272 0  -0.1 0.05000000000040083 0  -0.1 2.671196597248127e-13 0  -0.1 -0.0499999999998666 0  -0.0500000000000906 -0.1 0  -1.730560139634463e-13 -0.1 0  0.04999999999975802 -0.1 0  0.09999999999961506 -0.1 0  0.1499999999994613 -0.1 0  0.199999999999302 -0.1 0  0.2499999999991446 -0.1 0  0.2999999999990088 -0.1 0  0.3499999999988296 -0.1 0  0.3999999999986936 -0.1 0  0.4499999999985143 -0.1 0  0.4999999999984002 -0.1 0  0.5499999999985247 -0.1 0  0.5999999999986493 -0.1 0  0.6499999999987955 -0.1 0  0.6999999999989417 -0.1 0  0.7499999999990659 -0.1 0  0.7999999999992116 -0.1 0  0.8499999999993573 -0.1 0  0.8999999999994526 -0.1 0  0.949999999999584 -0.1 0  0.9999999999997226 -0.1 0  1.049999999999861 -0.1 0  1.1 -0.0500000000000906 0  1.1 -1.730560139634463e-13 0  1.1 0.04999999999975802 0  1.1 0.09999999999961506 0  1.1 0.1499999999994613 0  1.1 0.199999999999302 0  1.1 0.2499999999991446 0  1.1 0.2999999999990088 0  1.1 0.3499999999988296 0  1.1 0.3999999999986936 0  1.1 0.4499999999985143 0  1.1 0.4999999999984002 0  1.1 0.5499999999985247 0  1.1 0.5999999999986493 0  1.1 0.6499999999987955 0  1.1 0.6999999999989417 0  1.1 0.7499999999990659 0  1.1 0.7999999999992116 0  1.1 0.8499999999993573 0  1.1 0.8999999999994526 0  1.1 0.949999999999584 0  1.1 0.9999999999997226 0  1.1 1.049999999999861 0  1.05000000000004 1.1 0  1.000000000000079 1.1 0  0.9500000000001624 1.1 0  0.9000000000003032 1.1 0  0.850000000000444 1.1 0  0.8000000000005848 1.1 0  0.7500000000007256 1.1 0  0.7000000000008665 1.1 0  0.6500000000010508 1.1 0  0.6000000000012352 1.1 0  0.5500000000014196 1.1 0  0.500000000001539 1.1 0  0.4500000000014195 1.1 0  0.4000000000013 1.1 0  0.3500000000011588 1.1 0  0.3000000000010178 1.1 0  0.2500000000008986 1.1 0  0.2000000000007579 1.1 0  0.1500000000006174 1.1 0  0.1000000000005272 1.1 0  0.05000000000040083 1.1 0  2.671196597248127e-13 1.1 0  -0.0499999999998666 1.1 0  0.2532319287908888 0.5734540938174085 0  0.2653911287837244 0.5997847142574587 0  0.280811817969162 0.6243343288560004 0  0.2998400873241961 0.646087941950741 0  0.3220042131339876 0.6644552698330156 0  0.345458293120004 0.6810075104740515 0  0.369904859697642 0.6960552970105268 0  0.3955916267727512 0.7089149726939291 0  0.4223083702632311 0.7194513759817427 0  0.449847375943265 0.727712486642676 0  0.4780131417192065 0.7334979662260995 0  0.5065041160380112 0.7371946921780018 0  0.5353115967838132 0.7386579762078056 0  0.564150543644623 0.7358769790567545 0  0.5920593255326789 0.7280545941482091 0  0.6187321552268366 0.7166158116332024 0  0.6436109413535617 0.7017977433543542 0  0.6661936115410504 0.6836403703209188 0  0.6863603040175446 0.6628634571507969 0  0.7037434732651258 0.6397666836605449 0  0.7177845280558703 0.6144295891029141 0  0.7285047765106025 0.587505297322311 0  0.7357753927491864 0.5594917107333384 0  0.7385224047314343 0.5306658223698204 0  0.7370972717132879 0.5018478318628632 0  0.7331601899682137 0.4732896284980296 0  0.7267787836158008 0.4452618694359371 0  0.7178312345854608 0.4179497134383306 0  0.7068685896816485 0.3914052249273237 0  0.6939533226461924 0.3657546807095545 0  0.6788250315464386 0.3413482199030578 0  0.6619291810961236 0.3181509782022602 0  0.6430973482563465 0.2963391263179371 0  0.6209479055157683 0.2777497101141553 0  0.5959918436609587 0.2629661847218857 0  0.5692733986542281 0.2516185225108676 0  0.5409014435476196 0.2449276680039915 0  0.5118401208877122 0.2458130138996278 0  0.4837294104317841 0.2525222988282045 0  0.4564529730177849 0.2617397635793043 0  0.4301055000180543 0.2733142954259707 0  0.4052679570833915 0.2875908283470291 0  0.3814336812073181 0.3034978849588214 0  0.3588736609119272 0.3211903107410014 0  0.3378448319986406 0.3406899130783413 0  0.3185477200957762 0.3618490634151898 0  0.3010054626378161 0.3845289950064741 0  0.2854165174380859 0.4086056929154555 0  0.2716369605071879 0.4337817661458371 0  0.2606547404868655 0.4603534305624878 0  0.2521689439773072 0.4878937264880924 0  0.2462218917972974 0.5161292974789832 0  0.2700326053597004 0.507293827354707 0  0.3255239467733737 0.6368458287945258 0  0.502568092615848 0.2750979612856715 0  0.6351226290278645 0.3219977587850453 0  0.393329952780151 0.6811348719912872 0  0.6798635929734914 0.3898119145857672 0  0.7054207078504868 0.4649716695167946 0  0.7084757077688338 0.5702567249852434 0  0.6556001149394054 0.6587260649217462 0  0.5766173394430031 0.7099044738113519 0  0.4691006064473157 0.7059359857888177 0  0.4306641680904091 0.3020793140747522 0  0.3640602220665761 0.3485764543708611 0  0.3137261617085181 0.4085786063434801 0  0.5738076606783346 0.2791951528927236 0  0.2809990030342375 0.5762772294607023 0  0.2885760636740356 0.4554420942655382 0  0.6895972873153142 0.6119689947401455 0  0.6169764239275054 0.6878398667413611 0  0.7130095670594517 0.5183740776571731 0  0.5218131362213387 0.7136829459660069 0  0.4062506720242698 0.3161349144564467 0  0.4309480647386384 0.3305305238328719 0  0.4564193725450645 0.3150098210660419 0  0.4581015824623451 0.344278173107302 0  0.4303890548339299 0.3596139432571446 0  0.4578172653697537 0.370564008869276 0  0.434208932204031 0.3959015761735243 0  0.4852306655596387 0.3600335990975227 0  0.4847908425940218 0.3995567414228333 0  0.5246709177307055 0.3685342145936928 0  0.4494340108947513 0.4332917267105559 0  0.4115105837046862 0.4370083332866812 0  0.5207800276918554 0.3324467656196247 0  0.5588377969916738 0.3575532395997528 0  0.5745065875291299 0.3886878210491347 0  0.5541000322812832 0.3177687181524175 0  0.4389947810280162 0.4801126713608959 0  0.3700491231293779 0.4744395105454293 0  0.3980644817512273 0.5226617679800555 0  0.3491109692288016 0.5189419507899757 0  0.3652348307699343 0.5670548809247449 0  0.4143386149770323 0.5685711006044293 0  0.391477406538512 0.603959755095466 0  0.4313031741317365 0.614769930388921 0  0.460613912059082 0.5765299362023333 0  0.4686694518651187 0.6196710398902134 0  0.5069361987055606 0.5909347592133926 0  0.5270487833665202 0.6231128774885579 0  0.5573635363084375 0.5986028417462961 0  0.581955854566118 0.6327674289333626 0  0.6014589103378398 0.603448067553046 0  0.5952475577917761 0.5624809739459733 0  0.6291101755206439 0.5632375256563174 0  0.6249331868293114 0.5230443847712861 0  0.5482052133535665 0.6663988567687813 0  0.6144128277836677 0.6336767655486857 0  0.4453570566686861 0.6522861281319886 0  0.4899324046611798 0.6669201227275292 0  0.6035173931958009 0.3666150999480724 0  0.6038726622472179 0.4092417012812169 0  0.5836253754645196 0.4369818075458921 0  0.6296275155852631 0.3793789678873549 0  0.5927060105073539 0.335115975109964 0  0.5801225930221497 0.513497234323232 0  0.6210534419081382 0.451562503494252 0  0.6456384991360309 0.4324014887928545 0  0.6543086575003406 0.4610407316710215 0  0.6735689912435145 0.4359637869150314 0  0.4021255460719082 0.37347328757454 0  0.4051430975051579 0.6360095937658908 0  0.3729839746850461 0.636464243913146 0  0.3586459349714244 0.6074701239811628 0  0.3334086045823075 0.5751011475171511 0  0.6659426540409192 0.5351494468420458 0  0.6690458396011685 0.5691146688979125 0  0.6380176281436886 0.6110662007592543 0  0.5955433835036056 0.6636105253285751 0  0.3302272335743582 0.4771302437652836 0  0.35268569335
[...]
<PointData  Scalars="u"> 
<DataArray  type="Float64"  Name="u"  format="ascii">0.0000000000000000e+00  0.0000000000000000e+00  0.0000000000000000e+00  0.0000000000000000e+00  0.0000000000000000e+00  0.0000000000000000e+00  0.0000000000000000e+00  0.0000000000000000e+00  6.9558039782801739e-01  3.6377123888498558e-01  0.0000000000000000e+00  0.0000000000000000e+00  0.0000000000000000e+00  0.0000000000000000e+00  0.0000000000000000e+00  0.0000000000000000e+00  0.0000000000000000e+00  0.0000000000000000e+00  0.0000000000000000e+00  0.0000000000000000e+00  0.0000000000000000e+00  0.0000000000000000e+00  0.0000000000000000e+00  0.0000000000000000e+00  0.0000000000000000e+00  0.0000000000000000e+00  0.0000000000000000e+00  0.0000000000000000e+00  0.0000000000000000e+00  0.0000000000000000e+00  0.0000000000000000e+00  0.0000000000000000e+00  0.0000000000000000e+00  0.0000000000000000e+00  0.0000000000000000e+00  0.0000000000000000e+00  0.0000000000000000e+00  0.0000000000000000e+00  0.0000000000000000e+00  0.0000000000000000e+00  0.0000000000000000e+00  0.0000000000000000e+00  0.0000000000000000e+00  0.0000000000000000e+00  0.0000000000000000e+00  0.0000000000000000e+00  0.0000000000000000e+00  0.0000000000000000e+00  0.0000000000000000e+00  0.0000000000000000e+00  0.0000000000000000e+00  0.0000000000000000e+00  0.0000000000000000e+00  0.0000000000000000e+00  0.0000000000000000e+00  0.0000000000000000e+00  0.0000000000000000e+00  0.0000000000000000e+00  0.0000000000000000e+00  0.0000000000000000e+00  0.0000000000000000e+00  0.0000000000000000e+00  0.0000000000000000e+00  0.0000000000000000e+00  0.0000000000000000e+00  0.0000000000000000e+00  0.0000000000000000e+00  0.0000000000000000e+00  0.0000000000000000e+00  0.0000000000000000e+00  0.0000000000000000e+00  0.0000000000000000e+00  0.0000000000000000e+00  0.0000000000000000e+00  0.0000000000000000e+00  0.0000000000000000e+00  0.0000000000000000e+00  0.0000000000000000e+00  0.0000000000000000e+00  0.0000000000000000e+00  0.0000000000000000e+00  0.0000000000000000e+00  0.0000000000000000e+00  0.0000000000000000e+00  0.0000000000000000e+00  0.0000000000000000e+00  0.0000000000000000e+00  0.0000000000000000e+00  0.0000000000000000e+00  0.0000000000000000e+00  0.0000000000000000e+00  0.0000000000000000e+00  0.0000000000000000e+00  0.0000000000000000e+00  0.0000000000000000e+00  0.0000000000000000e+00  0.0000000000000000e+00  0.0000000000000000e+00  0.0000000000000000e+00  0.0000000000000000e+00  0.0000000000000000e+00  0.0000000000000000e+00  0.0000000000000000e+00  0.0000000000000000e+00  0.0000000000000000e+00  0.0000000000000000e+00  0.0000000000000000e+00  0.0000000000000000e+00  0.0000000000000000e+00  0.0000000000000000e+00  0.0000000000000000e+00  0.0000000000000000e+00  0.0000000000000000e+00  0.0000000000000000e+00  0.0000000000000000e+00  0.0000000000000000e+00  0.0000000000000000e+00  0.0000000000000000e+00  0.0000000000000000e+00  0.0000000000000000e+00  0.0000000000000000e+00  0.0000000000000000e+00  0.0000000000000000e+00  0.0000000000000000e+00  0.0000000000000000e+00  0.0000000000000000e+00  0.0000000000000000e+00  0.0000000000000000e+00  0.0000000000000000e+00  0.0000000000000000e+00  0.0000000000000000e+00  0.0000000000000000e+00  0.0000000000000000e+00  0.0000000000000000e+00  0.0000000000000000e+00  0.0000000000000000e+00  0.0000000000000000e+00  0.0000000000000000e+00  0.0000000000000000e+00  0.0000000000000000e+00  0.0000000000000000e+00  0.0000000000000000e+00  0.0000000000000000e+00  0.0000000000000000e+00  0.0000000000000000e+00  0.0000000000000000e+00  0.0000000000000000e+00  0.0000000000000000e+00  0.0000000000000000e+00  0.0000000000000000e+00  0.0000000000000000e+00  0.0000000000000000e+00  0.0000000000000000e+00  0.0000000000000000e+00  0.0000000000000000e+00  0.0000000000000000e+00  0.0000000000000000e+00  0.0000000000000000e+00  0.0000000000000000e+00  0.0000000000000000e+00  0.0000000000000000e+00  0.0000000000000000e+00  0.0000000000000000e+00  0.0000000000000000e+00  0.0000000000000000e+00  0.0000000000000000e+00  0.0000000000000000e+00  0.0000000000000000e+00  0.0000000000000000e+00  0.0000000000000000e+00  0.0000000000000000e+00  0.0000000000000000e+00  0.0000000000000000e+00  0.0000000000000000e+00  0.0000000000000000e+00  0.0000000000000000e+00  0.0000000000000000e+00  0.0000000000000000e+00  3.6658999673673431e-01  3.7185711301928398e-01  3.7692751025467691e-01  3.8417975680135424e-01  3.9380113465704353e-01  4.0067455111314870e-01  4.0414604770161366e-01  4.0605993152607256e-01  4.0645845278662251e-01  4.0545794390694417e-01  4.0296573441333128e-01  3.9824623870248654e-01  3.9122459072492000e-01  3.8612482383095081e-01  3.8448281147292596e-01  3.8398724702297632e-01  3.8366258789957652e-01  3.8416842139970470e-01  3.8490662513137719e-01  3.8506377678028003e-01  3.8565801900386010e-01  3.8672389768010151e-01  3.8831991874835620e-01  3.9247035997632140e-01  3.9821497666703309e-01  4.0290288565450832e-01  4.0540336972048074e-01  4.0710915034846062e-01  4.0649354946597005e-01  4.0364742230689976e-01  3.9922318259008571e-01  3.9222610507633154e-01  3.8276099845941169e-01  3.7560761167388501e-01  3.7123758435543885e-01  3.6616073321344955e-01  3.6377651638014508e-01  3.6995792205160494e-01  3.8135587824222072e-01  3.9042880955661330e-01  3.9839359056097823e-01  4.0542778197622747e-01  4.0988928184239298e-01  4.1209628072513510e-01  4.1256080585896432e-01  4.1136686897695895e-01  4.0871018214502502e-01  4.0401047778585725e-01  3.9712416388006289e-01  3.8979621678617193e-01  3.8072452464204792e-01  3.6979385215409516e-01  4.3038778570666986e-01  4.4837328680803185e-01  4.4271026929951901e-01  4.4549876232824942e-01  4.6595505244609586e-01  4.6504709569785135e-01  4.6834906605542126e-01  4.4868487990170425e-01  4.4772866171211895e-01  4.4154388087574059e-01  4.6850671621189927e-01  4.6548245151075512e-01  4.7274496653706410e-01  4.6718915606351386e-01  4.2944679018873372e-01  4.3066885877521310e-01  4.5472198690617083e-01  4.5092615584230317e-01  4.4935995014431190e-01  4.5875300846114991e-01  4.5694425382480536e-01  4.6954946376719076e-01  5.1824384046154437e-01  5.0771243192871385e-01  5.5864005930594463e-01  5.6384979016903669e-01  5.9652383489716498e-01  6.1399728124659170e-01  5.9218221925206216e-01  6.4197501070189134e-01  6.0528627679407165e-01  6.5656314691886297e-01  6.3159926577157510e-01  5.5075243830895471e-01  5.7469453374077650e-01  6.0503052313810679e-01  5.1432258303959832e-01  6.7496459178488277e-01  6.0548457277775347e-01  6.4021265947119355e-01  5.7823868677611889e-01  5.8187419519704475e-01  6.3385922019497132e-01  5.7955957283316928e-01  6.0254292316449665e-01  6.5654357978957045e-01  6.1496405361896966e-01  6.5258973585449376e-01  6.1200109281559811e-01  6.2939823928010508e-01  5.7063400933793496e-01  5.8804080448512597e-01  6.2965956201047957e-01  5.8830504588289700e-01  6.1238844166055384e-01  5.3981401981004118e-01  5.3792661845484657e-01  5.5791897611780950e-01  5.4840867999602660e-01  5.5028711384416562e-01  5.9641736875769524e-01  6.3912628242031466e-01  5.3424690387343798e-01  5.1588447386096592e-01  6.6042059760955663e-01  6.0604681523430859e-01  5.6017186567289479e-01  5.6235921383656318e-01  5.1601563682150797e-01  5.5691666686152685e-01  5.5223683308058702e-01  5.1729238802405808e-01  5.3503753838899393e-01  5.2718042647433849e-01  5.4633783722454121e-01  5.2379052171537943e-01  5.3591590000517486e-01  5.1306658399918936e-01  5.4265338953462516e-01  5.5931549134142300e-01  5.1650565938174864e-01  5.5941043579380167e-01  5.0487238378963584e-01  5.4044875991098407e-01  4.8410120325477551e-01  5.0309919976025752e-01  4.6385895237512098e-01  4.9164080732670051e-01  5.2292822538566441e-01  5.1882116592583838e-01  5.6848829055980721e-01  5.1692999741180368e-01  5.2832200435975651e-01  6.5826819082170396e-01  6.8040905019952580e-01  4.6389267815065016e-01  5.1145580438276939e-01  4.5612777448189146e-01  4.6681554011371124e-01  4.6215577454828399e-01  4.5432729940407368e-01  5.0109820005908801e-01  4.7145060732159610e-01  5.3039552345786845e-01  4.6010501833586931e-01  4.6968438473874619e-01  5.1941132344769958e-01  4.6876802810521656e-01  4.6748790727600886e-01  5.1894937351054271e-01  4.6511588349925959e-01  5.9045495691523553e-01  4.4332851271475876e-01  4.9571872703659647e-01  6.7505571268535125e-01  4.9719724531221349e-01  4.8343934605430944e-01  4.7236424814523426e-01  4.6612769146805083e-01  4.5229013046617272e-01  5.0352324962780792e-01  4.6780342398472391e-01  5.0192502977655185e-01  4.3455277166175704e-01  4.3342632823283417e-01  4.8579495883669466e-01  5.0049507282144212e-01  4.3659787492264085e-01  4.6186377127907630e-01  4.7175836775227231e-01  5.0051705537794733e-01  4.5225626708563826e-01  4.8283222653404589e-01  4.7573575104800953e-01  4.2453476910612897e-01  4.6791821398836581e-01  6.0427425244377886e-01  4.3179308090447144e-01  4.4601998688980976e-01  4.2712173163065820e-01  4.2225659338377497e-01  6.8281915507760871e-01  5.0539229582180811e-01  5.6130125131700159e-01  5.1639572180174287e-01  5.0936290265838302e-01  5.4147676081311968e-01  5.7959540505634866e-01  5.2133861227234901e-01  4.9363801189035073e-01  5.0604832625801766e-01  4.3413105781508787e-01  5.4272874622672818e-01  5.1001099442452957e-01  4.1676211257248846e-01  4.3396243691156355e-01  5.1084730059704730e-01  4.7347124174646277e-01  5.0819955439920461e-01  6.4612429634961921e-01  5.1602219329669363e-01  5.4687907444026596e-01  4.8965577050441361e-01  4.9394428384971417e-01  4.9621285871834064e-01  5.1462776549475653e-01  4.1542623842181792e-01  5.5671136591409309e-01  4.7484320837900368e-01  6.8306252507921772e-01  5.9831650514601031e-01  5.5432040534839144e-01  5.8940402191677954e-01  6.8164177799991799e-01  4.7205945903075014e-01  5.5535624040281506e-01  5.9509889184859954e-01  5.5967113676180225e-01  5.6795667710154696e-01  5.1176487806636362e-01  4.2740058231344230e-01  5.3353750998501426e-01  5.4725774287456996e-01  5.6147522818292828e-01  5.1333681857163183e-01  5.5326796962489011e-01  5.7187586425838022e-01  5.7593213554723466e-01  5.3552623059384086e-01  5.5555164723863837e-01  5.7425058526891326e-01  3.3930388394787026e-01  3.6196503858185253e-01  3.3756750370223604e-01  3.3616401795106354e-01  3.5490764567406663e-01  3.2209297560092326e-01  3.5382137672315994e-01  3.5365016429459334e-01  3.2496272662336406e-01  3.4676854105748750e-01  3.1657468807920536e-01  3.1608115188756308e-01  3.3907285619324207e-01  3.4163127849452413e-01  3.3520164345244702e-01  1.1470182303918797e-02  3.3993584510409375e-01  3.4929902924207362e-01  3.5227642865254777e-01  1.1981757882795492e-02  1.2600738612344736e-02  3.3532396998130931e-01  1.0988558432110270e-02  1.0793877583532353e-02  1.1704845330859007e-02  1.2336956803885525e-02  3.2535177304051077e-01  1.7493662314468243e-02  2.7644075329482910e-02  2.7403120378731244e-02  2.5869503943022679e-02  2.6349749959432466e-02  2.4238806934602744e-02  2.5839074726669256e-02  3.0735993310107762e-02  2.7081814174465497e-02  3.2796074215342662e-02  2.7695286175501370e-02  3.4268508076529793e-02  3.1673352422616319e-02  5.9063540976621179e-03  1.3289828288490977e-03  1.6848900392492196e-03  1.7728525488224299e-03  1.3332549344325191e-03  1.7887228777730684e-03  2.2393357966131074e-03  1.6172723778337587e-03  -1.8104987279763758e-03  3.1829174937814714e-01  2.7439934576818126e-01  2.7249742217776429e-01  2.3533645780562246e-01  2.2942664141959632e-01  2.3675780187746251e-01  1.9820488299340269e-01  1.9900609505084785e-01  1.5928331877007279e-01  1.5772625335739848e-01  1.9734552544853862e-01  1.5372783151594013e-01  1.8937259700067358e-01  1.4562837672300719e-01  1.7676993789820872e-01  1.3403004086893755e-01  1.6065567733965253e-01  1.1852618880508213e-01  1.4075395449012712e-01  1.0086633189538673e-01  1.1804619618121735e-01  1.6119408814911687e-01  1.3324730372913735e-01  1.0718005851829365e-01  8.1422201913300088e-02  6.6642137832611623e-02  1.7683707208072930e-01  1.4536037834855592e-01  1.0493233608012954e-01  1.8758778278111288e-01  1.5328703479391034e-01  2.0488028877561351e-01  1.5707392465838385e-01  1.9883073027529558e-01  1.5747497551991085e-01  1.9607879730703512e-01  1.5151579090899023e-01  1.8477355697788700e-01  5.1353534016167671e-02  1.3935267804331394e-01  1.7211746828680760e-01  1.2569124613386731e-01  1.5498572590570947e-01  1.0557293559124731e-01  1.1995144852696091e-01  2.1156575765161537e-01  1.1829348973995651e-01  3.8155212572997296e-02  5.1372097437552902e-02  1.6006088657597980e-01  1.2075230075829385e-01  1.1950965142415031e-01  1.0908652951267273e-01  1.3448188960136220e-01  1.8260034653963741e-01  1.5751543745727822e-01  1.1381169942968992e-01  1.3225487725921092e-01  9.2148855388921300e-02  1.0700524742780269e-01  1.4822650925182318e-01  1.1861572997401428e-01  1.6012188117810225e-01  1.2625016955899127e-01  9.0375021587101229e-02  9.4774276142002151e-02  1.3622011180852614e-01  9.6297100825258178e-02  1.2794464837267985e-01  9.0836206623705493e-02  1.2107709634130862e-01  6.4741708821261804e-02  1.6274016203399011e-01  1.5272499283633165e-01  8.1766507386830736e-02  6.5935580099379221e-02  2.0181168885497250e-01  2.0821100616142271e-01  7.1100576235584398e-02  2.0493868140437710e-01  1.8405809910252940e-01  1.3914588484088436e-01  1.6667112346894394e-01  1.2116210017730671e-01  1.4475072607941886e-01  1.0004115378762968e-01  1.2089805999188180e-01  1.6643220900780958e-01  1.3874426234914772e-01  1.9458226214848398e-01  1.5538544918790151e-01  2.0558404668901664e-01  1.6775166057975904e-01  2.2241009923790270e-01  1.7640279819952903e-01  2.2220659285952468e-01  1.7870736871976020e-01  1.3728846411110587e-01  1.4054945242128480e-01  1.7715267181929290e-01  1.3750534902363701e-01  1.7103372162256178e-01  1.3030337043859619e-01  1.6093911885611101e-01  1.1930095725833002e-01  1.4631649176956488e-01  1.0614292327255052e-01  1.2753095673048950e-01  8.3543999597967905e-02  1.0602552300691666e-01  1.7066088140470390e-01  1.4822516337034572e-01  1.0640410074321388e-01  1.2206493541985348e-01  7.1412941653631490e-02  5.3711709044379510e-02  8.3295215806038603e-02  1.6722754549755600e-01  1.3606664132503959e-01  1.2734781211577170e-01  6.2240215869894908e-02  2.0955924990618660e-01  2.1273956015087503e-01  1.8860802900368176e-01  1.4697332429743201e-01  1.9292578909926311e-01  1.5236055795037962e-01  2.0134890417666482e-01  1.5218900066203297e-01  1.9558250473108038e-01  1.4737993879936820e-01  1.9676256153329022e-01  1.4183260146018603e-01  1.7880903983320875e-01  1.3080640070534427e-01  1.5874026613615572e-01  1.1652201923713054e-01  1.3986397149524590e-01  1.0004063398463107e-01  1.2154540977543300e-01  1.7139010118562101e-01  1.4087301402203603e-01  1.0030981210951224e-01  1.1501339493876173e-01  1.5794846659148390e-01  1.2743616471347624e-01  9.0197640152426234e-02  9.8107336345562679e-02  1.3588062957083352e-01  1.0357272531641788e-01  1.3978740985554214e-01  6.6184647649423653e-02  1.7797146045013360e-01  1.8064853504719669e-01  1.3986262619225939e-01  1.7867306818342529e-01  1.3617472767140240e-01  1.0323383453156264e-01  1.7117616584153786e-01  1.2783415167425907e-01  5.8718784496371954e-02  4.0483355211129779e-02  2.2138808709073421e-01  1.6380969887921754e-01  1.1476022595242530e-01  2.2328272612174208e-01  2.1527221043531716e-01  2.4821499795389429e-01  1.0921758432827883e-01  2.4679145439976133e-01  2.1314159238902669e-01  3.6845498613796615e-02  4.4841057871545652e-02  2.1960634029585724e-01  2.0705899495903538e-01  2.1255596413338940e-01  1.0235520622648564e-01  2.4731404959936529e-01  7.9194729041990278e-02  4.4092891327390311e-02  2.2190940916863477e-01  2.6773028087577866e-01  2.5907156996879727e-01  7.8094100842968667e-02  2.6134541414243612e-01  2.7832017027997837e-02  6.2746732018071294e-02  2.7829421364227117e-02  2.3394463957300601e-01  2.1228196976147856e-01  3.3385761874601190e-02  2.0528118039865512e-02  4.9382968289302234e-02  6.4332475284391163e-02  5.9932781937077573e-02  3.9773868867116931e-02  4.2426995705835621e-02  2.2994949627626996e-02  2.3575781290176349e-02  2.5018232308812444e-01  7.0503436488550786e-02  5.1068515050639619e-02  5.7690506942090214e-02  8.9524275946329820e-02  2.5732126674815026e-01  4.2730364696007495e-02  2.6639411938945184e-01  2.6681991212364947e-01  3.1018522495345391e-01  2.9281168584194467e-01  8.3501253632972144e-02  7.2446278134201098e-02  2.4265591116314106e-01  2.2034765790166203e-01  2.4792773650153244e-01  2.6655945701767270e-01  3.0823820392088630e-01  6.1277115013608746e-02  2.0161360350535777e-02  2.5135372591313127e-01  2.9045022819318300e-01  2.1389557182255359e-01  2.8313607346216607e-01  4.1290565713133623e-02  4.3109102312165387e-02  2.3237316042124082e-01  4.4674907061766897e-02  1.3492039980940948e-01  3.0048499967638631e-01  2.9017559955327410e-01  2.5174220720852092e-01  2.8200619991243714e-01  2.4118412656397242e-01  2.7168632778802981e-01  3.1455283700280950e-01  3.1725368990796299e-01  2.0077562134001789e-02  1.7909826809475463e-02  2.5473945040951967e-01  2.8080883564213871e-01  2.5944943406915555e-01  8.5331993280906446e-02  8.5477323148532472e-02  9.0860825389432548e-02  3.7305922904538345e-02  6.3729603584418523e-02  4.3295513863559336e-02  8.6177613872156472e-02  6.9722411049825642e-02  6.9710247625130770e-02  4.8406444119163970e-02  3.2716126038981641e-01  2.9075558638406318e-01  2.9759364842919739e-01  2.7916752723826177e-01  2.5575947095727375e-01  3.3070484975924830e-01  2.9054803076150765e-01  2.9468253894657670e-01  3.0048353122609128e-01  2.4549884385156259e-02  2.7126847254359560e-01  2.7319667665837372e-01  6.2846091102471066e-02  3.1504888381653362e-01  3.5322574135532664e-02  3.4376252841804256e-01  3.4150916781168278e-01  2.9544213109855050e-01  2.9375608111913409e-01  2.4874838971505850e-01  2.9411242776992219e-01  1.0484695239067967e-02  3.3176609313062511e-01  3.1709875613005212e-01  3.0460105007904786e-01  2.5741984031955206e-01  2.8952683241201232e-01  3.1600400796113448e-01  2.2663147893970956e-01  2.8695005033168870e-02  3.7125514795353032e-02  2.4524729445690405e-01  2.2205936229774026e-01  2.9160496274724368e-01  2.9865009026633643e-01  2.8919729414427298e-01  3.1587159358513384e-01  2.6564003843860989e-01  3.5243341479524803e-01  2.5806311215026589e-01  2.2271208647696245e-01  2.1431417250261747e-01  2.5861736145196168e-01  3.3004661331091034e-01  2.9026607362234230e-01  2.5230312235506952e-01  2.9785110550373173e-01  3.4249917272602681e-01  2.9741354013163246e-01  3.0075209899439143e-01  2.5729826581631793e-01  2.0849573589846643e-01  3.4856005674366780e-01  3.0599596919337557e-01  1.9938128309960895e-01  3.5455057599174655e-01  3.0942338989245349e-01  3.0358127379062433e-01  3.1305745573414595e-01  2.6789584358495011e-01  2.6348186508384502e-01  3.4877541853532779e-01  3.0839364874966901e-01  3.0320063946619841e-01  2.5808004581560329e-01  2.7167777150556682e-01  2.6558972501020073e-01  3.5115392324084183e-01  3.0980242443484024e-01  3.1016976840723598e-01  2.6841927817943684e-01  3.0109814339080637e-01  2.5879503925179492e-01  2.6512163679435091e-01  3.3481511238203226e-01  2.9369656142604939e-01  3.5130962261939519e-01  1.8538906258569118e-01  4.0902107494777830e-02  2.3301589686498717e-01  2.1977053273929603e-01  3.1005010191033078e-01  3.3014605612193065e-01  3.3989661463144383e-01  2.2264285421021660e-01  3.1311859724248887e-02  5.5743022475779502e-02  2.2062176429904454e-01  3.2004776886622510e-02  6.6139314656544754e-02  7.0077948618345723e-02  3.7544009288497548e-02  6.3660485239967229e-02  6.3724198386708897e-02  6.1346229159982515e-02  1.7099750848219389e-01  2.9050160158490640e-01  1.7348408299056567e-01  1.8811508479533925e-01  2.5511489557303207e-01  3.0143231504059054e-02  5.8135672068568192e-02  5.3014995653936720e-02  9.3211190223461096e-02  2.3392710655300169e-02  1.9394459606669072e-02  7.9768683151510714e-02  6.3390305528516017e-02  6.9293326057048257e-02  