<?xml version="1.0"?>
<VTKFile type="UnstructuredGrid"  version="0.1"  >
<UnstructuredGrid>
<Piece  NumberOfPoints="1251" NumberOfCells="2404">
<Points>
<DataArray  type="Float64"  NumberOfComponents="3"  format="ascii">0 0 0  0 1 0  1 1 0  1 0 0  1.1 -0.1 0  -0.1 -0.1 0  1.1 1.1 0  -0.1 1.1 0  0.5001440100267543 0.5002082259560885 0  0.2483966070329188 0.5437266354036449 0  0 0.9499999999997918 0  0 0.8999999999995836 0  0 0.8499999999996529 0  0 0.7999999999999998 0  0 0.7500000000003466 0  0 0.7000000000006934 0  0 0.6500000000010401 0  0 0.6000000000013869 0  0 0.5500000000017335 0  0 0.5000000000020587 0  0 0.4500000000018723 0  0 0.4000000000016644 0  0 0.3500000000014564 0  0 0.3000000000012483 0  0 0.2500000000010403 0  0 0.2000000000008322 0  0 0.1500000000006241 0  0 0.100000000000416 0  0 0.05000000000020799 0  0.04999999999989965 0 0  0.09999999999981467 0 0  0.1499999999997036 0 0  0.1999999999995579 0 0  0.2499999999994121 0 0  0.2999999999992664 0 0  0.3499999999991206 0 0  0.3999999999989749 0 0  0.4499999999988292 0 0  0.4999999999986943 0 0  0.5499999999988151 0 0  0.5999999999989468 0 0  0.6499999999990784 0 0  0.69999999999921 0 0  0.7499999999993417 0 0  0.7999999999994734 0 0  0.8499999999996051 0 0  0.8999999999997368 0 0  0.9499999999998684 0 0  1 0.04999999999989965 0  1 0.09999999999981467 0  1 0.1499999999997036 0  1 0.1999999999995579 0  1 0.2499999999994121 0  1 0.2999999999992664 0  1 0.3499999999991206 0  1 0.3999999999989749 0  1 0.4499999999988292 0  1 0.4999999999986943 0  1 0.5499999999988151 0  1 0.5999999999989468 0  1 0.6499999999990784 0  1 0.69999999999921 0  1 0.7499999999993417 0  1 0.7999999999994734 0  1 0.8499999999996051 0  1 0.8999999999997368 0  1 0.9499999999998684 0  0.9499999999997918 1 0  0.8999999999995836 1 0  0.8499999999996529 1 0  0.7999999999999998 1 0  0.7500000000003466 1 0  0.7000000000006934 1 0  0.6500000000010401 1 0  0.6000000000013869 1 0  0.5500000000017335 1 0  0.5000000000020587 1 0  0.4500000000018723 1 0  0.4000000000016644 1 0  0.3500000000014564 1 0  0.3000000000012483 1 0  0.2500000000010403 1 0  0.2000000000008322 1 0  0.1500000000006241 1 0  0.100000000000416 1 0  0.05000000000020799 1 0  -0.1 1.05000000000004 0  -0.1 1.000000000000079 0  -0.1 0.9500000000001624 0  -0.1 0.9000000000003032 0  -0.1 0.850000000000444 0  -0.1 0.8000000000005848 0  -0.1 0.7500000000007256 0  -0.1 0.7000000000008665 0  -0.1 0.6500000000010508 0  -0.1 0.6000000000012352 0  -0.1 0.5500000000014196 0  -0.1 0.500000000001539 0  -0.1 0.4500000000014195 0  -0.1 0.4000000000013 0  -0.1 0.3500000000011588 0  -0.1 0.3000000000010178 0  -0.1 0.2500000000008986 0  -0.1 0.2000000000007579 0  -0.1 0.1500000000006174 0  -0.1 0.1000000000005272 0  -0.1 0.05000000000040083 0  -0.1 2.671196597248127e-13 0  -0.1 -0.0499999999998666 0  -0.0500000000000906 -0.1 0  -1.730560139634463e-13 -0.1 0  0.04999999999975802 -0.1 0  0.09999999999961506 -0.1 0  0.1499999999994613 -0.1 0  0.199999999999302 -0.1 0  0.2499999999991446 -0.1 0  0.2999999999990088 -0.1 0  0.3499999999988296 -0.1 0  0.3999999999986936 -0.1 0  0.4499999999985143 -0.1 0  0.4999999999984002 -0.1 0  0.5499999999985247 -0.1 0  0.5999999999986493 -0.1 0  0.6499999999987955 -0.1 0  0.6999999999989417 -0.1 0  0.7499999999990659 -0.1 0  0.7999999999992116 -0.1 0  0.8499999999993573 -0.1 0  0.8999999999994526 -0.1 0  0.949999999999584 -0.1 0  0.9999999999997226 -0.1 0  1.049999999999861 -0.1 0  1.1 -0.0500000000000906 0  1.1 -1.730560139634463e-13 0  1.1 0.04999999999975802 0  1.1 0.09999999999961506 0  1.1 0.1499999999994613 0  1.1 0.199999999999302 0  1.1 0.2499999999991446 0  1.1 0.2999999999990088 0  1.1 0.3499999999988296 0  1.1 0.3999999999986936 0  1.1 0.4499999999985143 0  1.1 0.4999999999984002 0  1.1 0.5499999999985247 0  1.1 0.5999999999986493 0  1.1 0.6499999999987955 0  1.1 0.6999999999989417 0  1.1 0.7499999999990659 0  1.1 0.7999999999992116 0  1.1 0.8499999999993573 0  1.1 0.8999999999994526 0  1.1 0.949999999999584 0  1.1 0.9999999999997226 0  1.1 1.049999999999861 0  1.05000000000004 1.1 0  1.000000000000079 1.1 0  0.9500000000001624 1.1 0  0.9000000000003032 1.1 0  0.850000000000444 1.1 0  0.8000000000005848 1.1 0  0.7500000000007256 1.1 0  0.7000000000008665 1.1 0  0.6500000000010508 1.1 0  0.6000000000012352 1.1 0  0.5500000000014196 1.1 0  0.500000000001539 1.1 0  0.4500000000014195 1.1 0  0.4000000000013 1.1 0  0.3500000000011588 1.1 0  0.3000000000010178 1.1 0  0.2500000000008986 1.1 0  0.2000000000007579 1.1 0  0.1500000000006174 1.1 0  0.1000000000005272 1.1 0  0.05000000000040083 1.1 0  2.671196597248127e-13 1.1 0  -0.0499999999998666 1.1 0  0.2538373144514848 0.5679383500811388 0  0.2623207376171942 0.5912607484113785 0  0.2735997029429942 0.613392424723508 0  0.2873321542110124 0.6341151431537788 0  0.3031512705441943 0.6533179538597134 0  0.3207341980957951 0.6709563871510794 0  0.3398951151031723 0.6868831691598415 0  0.3603705481785852 0.7011161631091967 0  0.3819433368716724 0.7136477222393652 0  0.4044776087730775 0.7243741975347318 0  0.4278250315498029 0.7331652415065283 0  0.451828020669069 0.7399388748010024 0  0.4763045715493272 0.7446974589868764 0  0.5010877447277464 0.7472532762235177 0  0.5259921435343832 0.7473406428627095 0  0.5507609461533377 0.7448858111131018 0  0.5751074536216801 0.7398142741922997 0  0.5987404369011335 0.7320879214646748 0  0.6213421543629064 0.7217447341427936 0  0.6426947740645327 0.7090319179896328 0  0.6626086731603382 0.6941731287204934 0  0.6808620458297669 0.6773196241813145 0  0.6972538477729948 0.6586527390605923 0  0.7116145009285277 0.6383764469678316 0  0.7237919942324942 0.6167149636144017 0  0.7336168274559655 0.5938843035942499 0  0.7408796483399223 0.5701097863696527 0  0.7455445751546156 0.5456771990350904 0  0.7476452836179717 0.5208786243316637 0  0.7471759476407943 0.4959865822083722 0  0.7441640356315381 0.4712556058332545 0  0.7389426686630995 0.4468798433771953 0  0.7316580321907968 0.4230246626564078 0  0.7224010158581201 0.3998536891013946 0  0.7112740374577193 0.3775183809696217 0  0.6983788779239722 0.3561648325369902 0  0.6838156377140896 0.3359243690568153 0  0.6675802559290175 0.3170231977136486 0  0.6496034311973068 0.2997809083715246 0  0.6300380970193439 0.2844276276815624 0  0.6090080654155092 0.2711806847469982 0  0.5866437885669198 0.2603836093309498 0  0.5631288761515466 0.2524482822212059 0  0.5387893362318142 0.2476273926702228 0  0.5140448203148431 0.245796689969226 0  0.4892528346779005 0.2469185761083471 0  0.4647485626165111 0.2509262394731111 0  0.4407749668816199 0.2574745327186937 0  0.4174775278425932 0.2661858392354134 0  0.3950020939372265 0.2768794136544486 0  0.3735716194193258 0.2895684978015015 0  0.3533039009927702 0.3040806425315672 0  0.3343205663793135 0.3202536265180348 0  0.3168038504451892 0.3379978053061826 0  0.3008999752918093 0.3572040639577106 0  0.2867638862058733 0.3777282516884031 0  0.2744544168559695 0.3993819761124615 0  0.2641682659148146 0.4220551993921707 0  0.2559608527870035 0.4455256594151208 0  0.2499806833771236 0.4696406031409399 0  0.246537419426239 0.4942240953079494 0  0.2459625613914235 0.519032345930467 0  0.5468322807072391 0.2710546288664141 0  0.6257526393282798 0.3093038964258132 0  0.4580874339129183 0.2732877126285035 0  0.2706482930981854 0.550628048054463 0  0.31226804730478 0.6330495000014208 0  0.2738467110788296 0.4628926415622225 0  0.6571624025679953 0.6699661143721503 0  0.7098595320779152 0.5967340234881475 0  0.7273928942515464 0.5095664938941324 0  0.581213143406589 0.7155421756128311 0  0.4900580137415953 0.7227295078316366 0  0.3120718614988929 0.3797502559965641 0  0.3730667327744832 0.3105875813351568 0  0.4238032437672914 0.7084928082887997 0  0.685436147978013 0.3767363611405879 0  0.7160668914307252 0.4408817734776562 0  0.3623105278800097 0.6761872506640316 0  0.3399983973983822 0.3433817960151301 0  0.4154489640412694 0.2900331049854826 0  0.288968673821761 0.4196614227474729 0  0.6592226644118842 0.3404701162173616 0  0.687263768672747 0.63576944017909 0  0.5348392187346187 0.7261449924062091 0  0.7233101238876691 0.5544211695838467 0  0.6221542362928786 0.6979146217595673 0  0.5026863288023172 0.2677837237829564 0  0.2671716188276841 0.505970358776922 0  0.2859750371071593 0.5930641494606441 0  0.592399164218339 0.2844591635320134 0  0.3824778330341963 0.6900898666762901 0  0.3856400154585871 0.6659435354954459 0  0.3645618378821892 0.6511702436611537 0  0.3888445215358688 0.6409508247899636 0  0.3654732716604493 0.6252905471529251 0  0.3948171685561772 0.6124990810586822 0  0.4198367493847298 0.630298306034523 0  0.3689436621905425 0.5976466237666518 0  0.3947980353279089 0.5824648211295043 0  0.3619799639077509 0.5637082557144524 0  0.4299400440706387 0.5940504454710525 0  0.4539266733625605 0.6357234456054824 0  0.4794115295546297 0.597664593115513 0  0.4900662169559861 0.6379549289215856 0  0.521506539175272 0.6078999181536093 0  0.5520591985479125 0.6435091819794556 0  0.5671317036241722 0.6067759002856915 0  0.4108781537723682 0.5470107382609307 0  0.3732022187448201 0.5201805303807889 0  0.5884082189143411 0.6369846352198546 0  0.6110219995791175 0.6113966383486876 0  0.5914525827664133 0.5727138414790385 0  0.6384542129598612 0.5785754741473932 0  0.6168020190123354 0.5405822443986743 0  0.6548702494828958 0.5446934057833428 0  0.6442504434873392 0.5058134520489125 0  0.60066719257785 0.5025945763384774 0  0.6309839060063916 0.4668530590468872 0  0.5843200864573259 0.4631942167326256 0  0.6162945755192515 0.4287413511610477 0  0.5693258238351163 0.4230552058877181 0  0.6003859291423377 0.389992302212869 0  0.5534860837111534 0.3842609574221228 0  0.5807733990619826 0.356648908323724 0  0.543940237560963 0.3455192515102172 0  0.5165912511520001 0.3767279639095947 0  0.5014404167529999 0.3379971441282514 0  0.4803072176701665 0.3681788934980912 0  0.4659874479786263 0.3368522211975051 0  0.4407656403629643 0.35827888677782 0  0.45597537329
[...]
<PointData  Scalars="u"> 
<DataArray  type="Float64"  Name="u"  format="ascii">0.0000000000000000e+00  0.0000000000000000e+00  0.0000000000000000e+00  0.0000000000000000e+00  0.0000000000000000e+00  0.0000000000000000e+00  0.0000000000000000e+00  0.0000000000000000e+00  7.2973470446580480e-01  3.9572294977028438e-01  0.0000000000000000e+00  0.0000000000000000e+00  0.0000000000000000e+00  0.0000000000000000e+00  0.0000000000000000e+00  0.0000000000000000e+00  0.0000000000000000e+00  0.0000000000000000e+00  0.0000000000000000e+00  0.0000000000000000e+00  0.0000000000000000e+00  0.0000000000000000e+00  0.0000000000000000e+00  0.0000000000000000e+00  0.0000000000000000e+00  0.0000000000000000e+00  0.0000000000000000e+00  0.0000000000000000e+00  0.0000000000000000e+00  0.0000000000000000e+00  0.0000000000000000e+00  0.0000000000000000e+00  0.0000000000000000e+00  0.0000000000000000e+00  0.0000000000000000e+00  0.0000000000000000e+00  0.0000000000000000e+00  0.0000000000000000e+00  0.0000000000000000e+00  0.0000000000000000e+00  0.0000000000000000e+00  0.0000000000000000e+00  0.0000000000000000e+00  0.0000000000000000e+00  0.0000000000000000e+00  0.0000000000000000e+00  0.0000000000000000e+00  0.0000000000000000e+00  0.0000000000000000e+00  0.0000000000000000e+00  0.0000000000000000e+00  0.0000000000000000e+00  0.0000000000000000e+00  0.0000000000000000e+00  0.0000000000000000e+00  0.0000000000000000e+00  0.0000000000000000e+00  0.0000000000000000e+00  0.0000000000000000e+00  0.0000000000000000e+00  0.0000000000000000e+00  0.0000000000000000e+00  0.0000000000000000e+00  0.0000000000000000e+00  0.0000000000000000e+00  0.0000000000000000e+00  0.0000000000000000e+00  0.0000000000000000e+00  0.0000000000000000e+00  0.0000000000000000e+00  0.0000000000000000e+00  0.0000000000000000e+00  0.0000000000000000e+00  0.0000000000000000e+00  0.0000000000000000e+00  0.0000000000000000e+00  0.0000000000000000e+00  0.0000000000000000e+00  0.0000000000000000e+00  0.0000000000000000e+00  0.0000000000000000e+00  0.0000000000000000e+00  0.0000000000000000e+00  0.0000000000000000e+00  0.0000000000000000e+00  0.0000000000000000e+00  0.0000000000000000e+00  0.0000000000000000e+00  0.0000000000000000e+00  0.0000000000000000e+00  0.0000000000000000e+00  0.0000000000000000e+00  0.0000000000000000e+00  0.0000000000000000e+00  0.0000000000000000e+00  0.0000000000000000e+00  0.0000000000000000e+00  0.0000000000000000e+00  0.0000000000000000e+00  0.0000000000000000e+00  0.0000000000000000e+00  0.0000000000000000e+00  0.0000000000000000e+00  0.0000000000000000e+00  0.0000000000000000e+00  0.0000000000000000e+00  0.0000000000000000e+00  0.0000000000000000e+00  0.0000000000000000e+00  0.0000000000000000e+00  0.0000000000000000e+00  0.0000000000000000e+00  0.0000000000000000e+00  0.0000000000000000e+00  0.0000000000000000e+00  0.0000000000000000e+00  0.0000000000000000e+00  0.0000000000000000e+00  0.0000000000000000e+00  0.0000000000000000e+00  0.0000000000000000e+00  0.0000000000000000e+00  0.0000000000000000e+00  0.0000000000000000e+00  0.0000000000000000e+00  0.0000000000000000e+00  0.0000000000000000e+00  0.0000000000000000e+00  0.0000000000000000e+00  0.0000000000000000e+00  0.0000000000000000e+00  0.0000000000000000e+00  0.0000000000000000e+00  0.0000000000000000e+00  0.0000000000000000e+00  0.0000000000000000e+00  0.0000000000000000e+00  0.0000000000000000e+00  0.0000000000000000e+00  0.0000000000000000e+00  0.0000000000000000e+00  0.0000000000000000e+00  0.0000000000000000e+00  0.0000000000000000e+00  0.0000000000000000e+00  0.0000000000000000e+00  0.0000000000000000e+00  0.0000000000000000e+00  0.0000000000000000e+00  0.0000000000000000e+00  0.0000000000000000e+00  0.0000000000000000e+00  0.0000000000000000e+00  0.0000000000000000e+00  0.0000000000000000e+00  0.0000000000000000e+00  0.0000000000000000e+00  0.0000000000000000e+00  0.0000000000000000e+00  0.0000000000000000e+00  0.0000000000000000e+00  0.0000000000000000e+00  0.0000000000000000e+00  0.0000000000000000e+00  0.0000000000000000e+00  0.0000000000000000e+00  0.0000000000000000e+00  0.0000000000000000e+00  0.0000000000000000e+00  0.0000000000000000e+00  0.0000000000000000e+00  0.0000000000000000e+00  0.0000000000000000e+00  0.0000000000000000e+00  0.0000000000000000e+00  0.0000000000000000e+00  0.0000000000000000e+00  0.0000000000000000e+00  3.9613746702293690e-01  3.9740006617307544e-01  4.0063055843925788e-01  4.0407518255534453e-01  4.0723396032494830e-01  4.1031831330421786e-01  4.1306702795470024e-01  4.1494876607167114e-01  4.1559462433617167e-01  4.1558912852054419e-01  4.1483777420350398e-01  4.1312769668059307e-01  4.1117498675759501e-01  4.0882687843629939e-01  4.0638468054890919e-01  4.0453677705468033e-01  4.0328533822217122e-01  4.0243258650045172e-01  4.0202058999376578e-01  4.0211321578574749e-01  4.0240890331278772e-01  4.0256604920271305e-01  4.0264345196813361e-01  4.0284368873128129e-01  4.0286634465017496e-01  4.0290719805441727e-01  4.0366436757475255e-01  4.0506336487103195e-01  4.0669736985089611e-01  4.0873979350243556e-01  4.1110172193578753e-01  4.1318568902870484e-01  4.1464929599074052e-01  4.1565559028503046e-01  4.1579548465169830e-01  4.1455758385470703e-01  4.1253309895480988e-01  4.1002740902325985e-01  4.0628494886962208e-01  4.0332400516533490e-01  3.9991897789887604e-01  3.9732258178731161e-01  3.9582274931658556e-01  3.9560671935183606e-01  3.9674759048908803e-01  3.9896070548993423e-01  4.0235617082013447e-01  4.0598990318021344e-01  4.0911709093698412e-01  4.1190231297870028e-01  4.1328704889120060e-01  4.1513055890592560e-01  4.1592390386866823e-01  4.1567419757444879e-01  4.1442631146178849e-01  4.1356737380467945e-01  4.1125272429558923e-01  4.0791933237638572e-01  4.0520471662084667e-01  4.0172686786707323e-01  3.9872736300433176e-01  3.9666187899087757e-01  4.5323846294997122e-01  4.6418801775219182e-01  4.5762284347238846e-01  4.5038945414979503e-01  4.5941846944269477e-01  4.6112795612355434e-01  4.5953798883744595e-01  4.5836915044426685e-01  4.6186298436579015e-01  4.5945670869098376e-01  4.7222643892710375e-01  4.7243567067277809e-01  4.6001543590471172e-01  4.7311389987055230e-01  4.7296665412180899e-01  4.6826078210156802e-01  4.7130367719855237e-01  4.6991509550487548e-01  4.6568980926982456e-01  4.6723369779234197e-01  4.6886437555986388e-01  4.5954242186175287e-01  4.6025747269795780e-01  4.5886159702016155e-01  4.5598375436002531e-01  4.5553741360717170e-01  4.5404615271978715e-01  4.5354950679389949e-01  4.5091452014336120e-01  4.7046096031612988e-01  5.1851858980354881e-01  5.1658585973807625e-01  5.6163993210443286e-01  5.5451531951188937e-01  6.0576813961333986e-01  6.0663668981657481e-01  5.9096851083459334e-01  6.3597170223185173e-01  6.1111936947720291e-01  6.5807212747842336e-01  6.2218400876026092e-01  6.7719946415474896e-01  6.2929949331835788e-01  6.6739005467540802e-01  6.0949376061859917e-01  6.4774339332281661e-01  6.7757929756522506e-01  6.4465223752908751e-01  5.9313970532654170e-01  6.0339316069876658e-01  6.5934802150185934e-01  6.0016296918580458e-01  6.5048444473039380e-01  5.9545827082120828e-01  6.2125792267985613e-01  6.7638239232584030e-01  6.3418230596163849e-01  6.8495326335628004e-01  6.3264556165005459e-01  6.7358531845061276e-01  6.1502909905940184e-01  6.4560214899895951e-01  5.9012772123844170e-01  5.9754745846248358e-01  6.4949043771816584e-01  5.9485673158858321e-01  6.3734685192691254e-01  5.8574176103531528e-01  6.0700266376492662e-01  6.6245677846063689e-01  6.2226236400476476e-01  6.7510005177849752e-01  6.2483570643710551e-01  5.8996429377210124e-01  5.9940472079702456e-01  6.8816453642038045e-01  5.9882767007813076e-01  5.8835816837266819e-01  5.9091107495371076e-01  5.7836945465050471e-01  6.1181252949420373e-01  5.5852505602337443e-01  5.4104008378327983e-01  5.6599959137794775e-01  5.2810082254781732e-01  5.4792668245120546e-01  5.5772828419164144e-01  5.5913738374115174e-01  5.7664101691678493e-01  5.4445349435506141e-01  5.5827018696859321e-01  5.5449775356114606e-01  5.6975407108902110e-01  5.5012132893094357e-01  6.9834245198331291e-01  5.8883728549437808e-01  5.4967483024327035e-01  5.3022452580487811e-01  5.5587503515288228e-01  5.3545340377107908e-01  5.2317568026431616e-01  5.3468671362054854e-01  5.1019021078442328e-01  5.3259150668207778e-01  5.4732377443297764e-01  5.0855594295230966e-01  5.3566945342854433e-01  5.3700278283740366e-01  6.9618308612163537e-01  5.3021026125618609e-01  5.4399211223547383e-01  5.4484304566147035e-01  5.1467358204950442e-01  5.7242529947466780e-01  5.3993269410065414e-01  5.2768608009570217e-01  5.6623881414475885e-01  5.2878789377570223e-01  4.9997275130144508e-01  5.0097331632814823e-01  5.0281520498975418e-01  5.0438433844093267e-01  5.9236216911935557e-01  5.5007135673453778e-01  5.1428572414518647e-01  6.4406401753061338e-01  7.1222687407797791e-01  4.8918549364486186e-01  7.1272540282299757e-01  6.8971804628128852e-01  5.2327197270297687e-01  4.9859283859429659e-01  6.9288876318868209e-01  6.6913054403436911e-01  5.6420675670231402e-01  4.6667663303187901e-01  4.6897610454668964e-01  5.2294780540182728e-01  4.6850642940045439e-01  4.6863921045156315e-01  4.9933447779811646e-01  5.0290468521217258e-01  4.6609449967926603e-01  4.6873779665144599e-01  4.6771535468853842e-01  4.6021887729382677e-01  4.7686906897160641e-01  4.7292665712264192e-01  4.6622319940269247e-01  5.1292845773799967e-01  5.1299686841790881e-01  5.0518655253446565e-01  5.0998306235928570e-01  5.0614393070045538e-01  5.6167147957859520e-01  4.6218238704599374e-01  5.1330468700834009e-01  4.5763920852168571e-01  5.0576212333501103e-01  4.6114768866646771e-01  4.6136807658024354e-01  4.6306968584351582e-01  5.0654969319327825e-01  5.3947628149290161e-01  4.5780896204743421e-01  5.1249992492214136e-01  4.5797642944083483e-01  5.0714789692700357e-01  5.2168208837388497e-01  4.5640474949728477e-01  4.5634798883887318e-01  4.5725960569685381e-01  5.0585992383279266e-01  7.1474192966915540e-01  4.5227537199113316e-01  7.1190551377583688e-01  4.5321452414777735e-01  4.9830157652014301e-01  4.5444717001867319e-01  4.4994455647904480e-01  4.5665657873376114e-01  4.9966056877116088e-01  5.4679643063959604e-01  6.9422566319837098e-01  7.1727722586431719e-01  5.0304730501486039e-01  4.6461447750811319e-01  4.5496354981509751e-01  5.1053198549073386e-01  4.6214470132419205e-01  6.8115831965382134e-01  5.4666884413236971e-01  5.3997098174415048e-01  5.4459227116724163e-01  4.5373507782173228e-01  5.1279316348895154e-01  5.0319270844296016e-01  4.9457559348674252e-01  5.0162046313847919e-01  4.9590456446166392e-01  5.7470758008223755e-01  5.1455858546341127e-01  5.4688336699575146e-01  5.0728401214248198e-01  5.0370982712168122e-01  4.9713587426573369e-01  5.4135783247265512e-01  5.1257485618622933e-01  5.0897005805072693e-01  4.9518755252323610e-01  5.0020927261585901e-01  5.4719102323582769e-01  7.1942450897895549e-01  4.9489129066824455e-01  7.1594265616459296e-01  5.5439980483831175e-01  4.5395618896715656e-01  5.5688706531246879e-01  4.4377474233685954e-01  5.7709612243812758e-01  5.6582239823743752e-01  5.9058777270755314e-01  5.2960164140839328e-01  5.0793087889425370e-01  5.7330270035187392e-01  5.8236267611266923e-01  5.8507088770781124e-01  4.9186186559936890e-01  5.5783505998063765e-01  5.4892723980816338e-01  5.3883374995226763e-01  5.0708191640868971e-01  4.5359504404598183e-01  5.4131011071020729e-01  5.6713805539470807e-01  4.9145437989711788e-01  4.9527223534999137e-01  4.9978937551519387e-01  5.5698287119464462e-01  4.9484454781744808e-01  5.7461342563645279e-01  5.4848807037729286e-01  5.6842116520700769e-01  5.0570573914251415e-01  5.6462937370552879e-01  5.7704724205056945e-01  5.4027935636705127e-01  5.6904822436425839e-01  4.9616204345670500e-01  5.7565802399701693e-01  5.6730463858581970e-01  6.0951683754643471e-01  5.0830876826723193e-01  3.6187838382802140e-01  3.5934537470488903e-01  3.5549052566452832e-01  3.4960991218837456e-01  3.5782338398181734e-01  3.6301529166081947e-01  3.4361584638623949e-01  3.5987874857092433e-01  3.5719913917407525e-01  3.5450453749287852e-01  3.4184283502254098e-01  3.4297331338660914e-01  3.4256376952386886e-01  3.4470758712819666e-01  3.3993489079623068e-01  3.3961945071244631e-01  3.4571760033764920e-01  1.9567079408975445e-02  3.6098101311863334e-01  2.0670538932776757e-02  2.0088844192837328e-02  2.0806089118642391e-02  2.0723769259151450e-02  2.0012408811787192e-02  3.5177575315318615e-01  2.0300079259749092e-02  3.4560669621661100e-01  3.5057209723580479e-01  1.9600218306787973e-02  3.4495224708054606e-01  3.5943966470318972e-01  3.4808190957931667e-01  3.5160248403420646e-01  4.6126407474947714e-02  4.4647945054915927e-02  3.8852398551856633e-02  4.2922665804096753e-02  4.8400569540939763e-02  5.0192919927237713e-02  4.6059578637713629e-02  4.1560884669804753e-02  5.3950518618935135e-02  4.7682540420866761e-02  4.8432899475014272e-02  5.2354404337073931e-02  5.6688642441925282e-03  6.7667416661657256e-03  5.8540153880102279e-03  5.1914774270312028e-03  4.7634865792471346e-03  4.7147337384177632e-03  4.8158646262733825e-03  6.8938070466673567e-03  3.3806890301743320e-01  2.9137062326335383e-01  2.8940725012219004e-01  2.4719220130108180e-01  2.4724073775648345e-01  2.4258963423648466e-01  2.0440777700595347e-01  2.1004004594157022e-01  1.6047081041375127e-01  1.5759475177873494e-01  2.0087030144040049e-01  1.5200754442414977e-01  1.9807368117804497e-01  1.4396987453747240e-01  1.7781823598985419e-01  1.3277646763555323e-01  1.6089423609620745e-01  1.1084487197443615e-01  1.3931735719906607e-01  9.7180304058047479e-02  1.1684913988410345e-01  1.6289690616879288e-01  1.3494035730021045e-01  1.8272904090291370e-01  1.4898928300653391e-01  7.8433824071294428e-02  2.0530601000820956e-01  1.6038619687558486e-01  1.1525564754708674e-01  1.0220101955272788e-01  2.1011682274096780e-01  1.6559899315091808e-01  2.2186344538069547e-01  1.6761996580918653e-01  2.2258312198613164e-01  1.6415034482597243e-01  2.0782360118208745e-01  2.1240008220266648e-01  6.2419988460510077e-02  4.7077255015390680e-02  1.6549833501844866e-01  5.9245197422273084e-02  2.1101799175086666e-01  1.1699106089115012e-01  1.5688255132156645e-01  2.0374049466331681e-01  1.2302072493546087e-01  1.4511828330074703e-01  1.8052257108403608e-01  1.2564601018290583e-01  1.5613353984796041e-01  2.1075835536607726e-01  1.9777311372012524e-01  1.3374134642365246e-01  1.6645275125181649e-01  2.2241593707561394e-01  1.9472891107548362e-01  1.4144682992967400e-01  1.5959557881141159e-01  1.1568807715253911e-01  1.3166153388305435e-01  1.8398917732784281e-01  1.4584195050707482e-01  1.9626611106315572e-01  1.6165670981453695e-01  1.1531892967674816e-01  1.1924849404600041e-01  1.5822945693066123e-01  1.2083622959275600e-01  1.5735160543253413e-01  8.2814261098372074e-02  1.1723053743044418e-01  1.5934925519876145e-01  1.0827178054899669e-01  1.4035282151185888e-01  1.9696938599040634e-01  9.0088089545150574e-02  2.6742108371282025e-01  9.3933110472112974e-02  1.2195590566826613e-01  1.7304606072818027e-01  1.5136331465568806e-01  2.1380283173441517e-01  1.8216918250980937e-01  1.2717810121570669e-01  1.5346639466137607e-01  2.0984624761869256e-01  1.8639358917447088e-01  7.3877878114916626e-02  9.4129968745973708e-02  2.2905983900437732e-01  7.8590761369354181e-02  2.5462773740904632e-01  2.4931150981585193e-01  2.3846188730206880e-01  1.9937515980272558e-01  2.5380281849067771e-01  2.2309305194934820e-01  1.6176259890867595e-01  1.7573099394796629e-01  2.2803079589072311e-01  1.8451674890603337e-01  2.3446466855188922e-01  1.9637662582158780e-01  1.4547449781045260e-01  1.4869240185696253e-01  1.8982633481030836e-01  1.4780658235714317e-01  1.8622718747310368e-01  1.4303708725257133e-01  1.7948997692856161e-01  1.3434800831305208e-01  1.6616422941245709e-01  1.2105958633625792e-01  1.4820826233813425e-01  9.4141975922034521e-02  8.2061010429976516e-02  1.0278122354338956e-01  6.0796726276889416e-02  1.9874750717764134e-01  1.7732393384425005e-01  1.2787785284980843e-01  1.5868207177525659e-01  1.0612744195914865e-01  2.2465282391905284e-01  1.2334780475620061e-01  1.7284761772676455e-01  1.3829401132421376e-01  1.9052312235968089e-01  1.5100910856412089e-01  2.3078097668340353e-01  7.1188065094215144e-02  2.1109447169793244e-01  1.6116161504169721e-01  4.9909357288548672e-02  2.1465818073068957e-01  1.7532956593165494e-01  2.1800853515667756e-01  1.6872937713194278e-01  2.1798533262221501e-01  1.6141375638224531e-01  2.0459211681371364e-01  1.5371309349863230e-01  1.9892205574321223e-01  1.4250915207376666e-01  1.7347725772805223e-01  1.2447927104072921e-01  1.5319028397767001e-01  1.0723593461733998e-01  1.3060802988735945e-01  1.7997926085149776e-01  1.5246605562982291e-01  1.0735142167668936e-01  1.2443955867996297e-01  8.4305222675697442e-02  9.6802451268060821e-02  1.3826480011491354e-01  1.0584215799504133e-01  1.4749945836699097e-01  1.1128772489600545e-01  1.5188909733972342e-01  1.8127683315073373e-01  6.2254561707845331e-02  1.0901536522236220e-01  1.5153762149536076e-01  1.9836796765417297e-01  2.0168340108273633e-01  1.4763545963996039e-01  1.8738894747959051e-01  1.3778817235117685e-01  1.7734172688796424e-01  1.2422496696329023e-01  2.0591072282216796e-01  5.1670373216111322e-02  2.3461912059706400e-01  7.5835034724941797e-02  3.4798669496073756e-02  2.2623823631148318e-01  3.3992194934595377e-02  8.1327239633052550e-02  4.2614170262889779e-02  1.2480155562123602e-01  2.3305320505042831e-01  2.3576799023877976e-01  2.4707279541938937e-01  7.8021314432388439e-02  1.1480558730729727e-01  1.1772075946870963e-01  2.4736922245739065e-01  8.6213107417572529e-02  2.7942332392764135e-01  2.5968656002329032e-01  2.8734013420603699e-01  2.6428848142525935e-01  2.3040191389432327e-01  2.4789347151245117e-01  2.4601104822496692e-01  7.2157872449480881e-02  2.6022432658555689e-01  1.2530487935128518e-01  2.7606815182235556e-01  3.0112427455463370e-01  2.6766565699834449e-01  1.7260105810623866e-01  3.4891223946411920e-02  2.1696965989452869e-02  2.5135070279159222e-01  2.8107964128955659e-01  2.6087296656058245e-01  1.1553769147490363e-01  1.1328787834232425e-01  2.9423819453329891e-01  2.5980686773543243e-01  2.6066555408561981e-01  2.5908440932335880e-01  2.6204409057553885e-01  2.6539149054693684e-01  2.7971931941105516e-01  2.5235482236422868e-01  2.7855833876443020e-01  3.1033570142598682e-01  2.7621316910835148e-01  2.8201760301248607e-01  2.6431134291638830e-01  7.5986408680292064e-02  2.3599533591314947e-01  2.4989199284652414e-01  2.8674101161112947e-01  3.1072373692634264e-01  2.8133589966720396e-01  2.4466371510191268e-01  9.9135838318793024e-02  3.1565492216692603e-01  2.8049042103077809e-01  9.4447941040073688e-02  1.0792692629499155e-01  7.8240836386863938e-02  2.6350342054311009e-02  4.7067797178036566e-02  5.6313998822690663e-02  6.6322143184513099e-02  4.6834934407564845e-02  2.8748666460509825e-01  2.8934294681863781e-01  2.9166101965208946e-01  2.9511338215800154e-01  2.5354281454011796e-01  2.9473990110126580e-01  2.6452878030926791e-01  3.1058613503488963e-01  2.4327337355747142e-01  2.7707583186642776e-01  2.2225189200470266e-01  2.7622107924020783e-01  3.4772738313375540e-01  3.1545892781071383e-01  3.4689335943764510e-01  2.4323263451638058e-02  3.4201600008751620e-01  2.9570407992044406e-01  2.9574772045820397e-01  2.5064428427067470e-01  9.3771797149188596e-02  3.4195951992780182e-01  2.9128218566578462e-01  3.2947595298049914e-01  2.7666696162266508e-01  7.7331530580546939e-02  2.9426761434983129e-01  2.2757053293404250e-01  2.9031972129658656e-01  3.3939152058607003e-01  2.9620609590294855e-01  2.9594596234362908e-01  3.4322617120106658e-01  3.4013295887760214e-01  2.9638538471852771e-01  2.8679357520764909e-01  3.4922485013363530e-01  2.6404728181286402e-01  3.0741867825911806e-01  3.0117164868692997e-01  3.4359602969779846e-01  2.9123856299289019e-01  3