<?xml version="1.0"?>
<VTKFile type="UnstructuredGrid"  version="0.1"  >
<UnstructuredGrid>
<Piece  NumberOfPoints="1008" NumberOfCells="1918">
<Points>
<DataArray  type="Float64"  NumberOfComponents="3"  format="ascii">0 0 0  0 1 0  1 1 0  1 0 0  1.1 -0.1 0  -0.1 -0.1 0  1.1 1.1 0  -0.1 1.1 0  0.3175405128940211 0.5314308390150987 0  0.5397035679925193 0.5402985888732651 0  0 0.9499999999997918 0  0 0.8999999999995836 0  0 0.8499999999996529 0  0 0.7999999999999998 0  0 0.7500000000003466 0  0 0.7000000000006934 0  0 0.6500000000010401 0  0 0.6000000000013869 0  0 0.5500000000017335 0  0 0.5000000000020587 0  0 0.4500000000018723 0  0 0.4000000000016644 0  0 0.3500000000014564 0  0 0.3000000000012483 0  0 0.2500000000010403 0  0 0.2000000000008322 0  0 0.1500000000006241 0  0 0.100000000000416 0  0 0.05000000000020799 0  0.04999999999989965 0 0  0.09999999999981467 0 0  0.1499999999997036 0 0  0.1999999999995579 0 0  0.2499999999994121 0 0  0.2999999999992664 0 0  0.3499999999991206 0 0  0.3999999999989749 0 0  0.4499999999988292 0 0  0.4999999999986943 0 0  0.5499999999988151 0 0  0.5999999999989468 0 0  0.6499999999990784 0 0  0.69999999999921 0 0  0.7499999999993417 0 0  0.7999999999994734 0 0  0.8499999999996051 0 0  0.8999999999997368 0 0  0.9499999999998684 0 0  1 0.04999999999989965 0  1 0.09999999999981467 0  1 0.1499999999997036 0  1 0.1999999999995579 0  1 0.2499999999994121 0  1 0.2999999999992664 0  1 0.3499999999991206 0  1 0.3999999999989749 0  1 0.4499999999988292 0  1 0.4999999999986943 0  1 0.5499999999988151 0  1 0.5999999999989468 0  1 0.6499999999990784 0  1 0.69999999999921 0  1 0.7499999999993417 0  1 0.7999999999994734 0  1 0.8499999999996051 0  1 0.8999999999997368 0  1 0.9499999999998684 0  0.9499999999997918 1 0  0.8999999999995836 1 0  0.8499999999996529 1 0  0.7999999999999998 1 0  0.7500000000003466 1 0  0.7000000000006934 1 0  0.6500000000010401 1 0  0.6000000000013869 1 0  0.5500000000017335 1 0  0.5000000000020587 1 0  0.4500000000018723 1 0  0.4000000000016644 1 0  0.3500000000014564 1 0  0.3000000000012483 1 0  0.2500000000010403 1 0  0.2000000000008322 1 0  0.1500000000006241 1 0  0.100000000000416 1 0  0.05000000000020799 1 0  -0.1 1.05000000000004 0  -0.1 1.000000000000079 0  -0.1 0.9500000000001624 0  -0.1 0.9000000000003032 0  -0.1 0.850000000000444 0  -0.1 0.8000000000005848 0  -0.1 0.7500000000007256 0  -0.1 0.7000000000008665 0  -0.1 0.6500000000010508 0  -0.1 0.6000000000012352 0  -0.1 0.5500000000014196 0  -0.1 0.500000000001539 0  -0.1 0.4500000000014195 0  -0.1 0.4000000000013 0  -0.1 0.3500000000011588 0  -0.1 0.3000000000010178 0  -0.1 0.2500000000008986 0  -0.1 0.2000000000007579 0  -0.1 0.1500000000006174 0  -0.1 0.1000000000005272 0  -0.1 0.05000000000040083 0  -0.1 2.671196597248127e-13 0  -0.1 -0.0499999999998666 0  -0.0500000000000906 -0.1 0  -1.730560139634463e-13 -0.1 0  0.04999999999975802 -0.1 0  0.09999999999961506 -0.1 0  0.1499999999994613 -0.1 0  0.199999999999302 -0.1 0  0.2499999999991446 -0.1 0  0.2999999999990088 -0.1 0  0.3499999999988296 -0.1 0  0.3999999999986936 -0.1 0  0.4499999999985143 -0.1 0  0.4999999999984002 -0.1 0  0.5499999999985247 -0.1 0  0.5999999999986493 -0.1 0  0.6499999999987955 -0.1 0  0.6999999999989417 -0.1 0  0.7499999999990659 -0.1 0  0.7999999999992116 -0.1 0  0.8499999999993573 -0.1 0  0.8999999999994526 -0.1 0  0.949999999999584 -0.1 0  0.9999999999997226 -0.1 0  1.049999999999861 -0.1 0  1.1 -0.0500000000000906 0  1.1 -1.730560139634463e-13 0  1.1 0.04999999999975802 0  1.1 0.09999999999961506 0  1.1 0.1499999999994613 0  1.1 0.199999999999302 0  1.1 0.2499999999991446 0  1.1 0.2999999999990088 0  1.1 0.3499999999988296 0  1.1 0.3999999999986936 0  1.1 0.4499999999985143 0  1.1 0.4999999999984002 0  1.1 0.5499999999985247 0  1.1 0.5999999999986493 0  1.1 0.6499999999987955 0  1.1 0.6999999999989417 0  1.1 0.7499999999990659 0  1.1 0.7999999999992116 0  1.1 0.8499999999993573 0  1.1 0.8999999999994526 0  1.1 0.949999999999584 0  1.1 0.9999999999997226 0  1.1 1.049999999999861 0  1.05000000000004 1.1 0  1.000000000000079 1.1 0  0.9500000000001624 1.1 0  0.9000000000003032 1.1 0  0.850000000000444 1.1 0  0.8000000000005848 1.1 0  0.7500000000007256 1.1 0  0.7000000000008665 1.1 0  0.6500000000010508 1.1 0  0.6000000000012352 1.1 0  0.5500000000014196 1.1 0  0.500000000001539 1.1 0  0.4500000000014195 1.1 0  0.4000000000013 1.1 0  0.3500000000011588 1.1 0  0.3000000000010178 1.1 0  0.2500000000008986 1.1 0  0.2000000000007579 1.1 0  0.1500000000006174 1.1 0  0.1000000000005272 1.1 0  0.05000000000040083 1.1 0  2.671196597248127e-13 1.1 0  -0.0499999999998666 1.1 0  0.343932177928305 0.5860528637122862 0  0.3868237728534529 0.6213625199561429 0  0.4342676453697338 0.6451188567307792 0  0.4860274680285083 0.6592401138698752 0  0.5427767361926489 0.6611121265004146 0  0.5973539094202874 0.6387334278510887 0  0.6397702879116915 0.5949905653008614 0  0.6608570096081655 0.5392077377837678 0  0.6579481949072301 0.483066081813864 0  0.6431647953374866 0.4320750066550534 0  0.6189308875596871 0.3843760415107693 0  0.5827573722521692 0.3421358822576823 0  0.5272573137691134 0.3176164652223407 0  0.471471763264051 0.3307133006849019 0  0.4263452737106359 0.3572172672771006 0  0.3877569710865067 0.390117425860646 0  0.354777938991106 0.4294450179477349 0  0.3291577305686873 0.4751072538062491 0  0.4118119964148311 0.445344400381557 0  0.4886443683585235 0.3842740251256008 0  0.4284879928506855 0.588418856377785 0  0.5812983568044382 0.427270764332558 0  0.6052243739615458 0.5224976107878018 0  0.5224880201197918 0.6090246104078025 0  0.3616861729794299 0.5301147080367934 0  0.5838081245831255 0.5840466578942878 0  0.5597649060121301 0.482367291640748 0  0.5011830735829941 0.4960566907037896 0  0.4758924352444992 0.5534641891834866 0  0.4400840539598301 0.4950197083049593 0  0.5134880448705345 0.438673955816293 0  0.5311373725767424 0.3612784600256603 0  0.4419869151122051 0.4097544381930851 0  0.4694834873153564 0.6112260551448639 0  0.3829802881866221 0.4839651621126825 0  0.4629350175768521 0.4578194269878756 0  0.4127882339510872 0.5375995939571769 0  0.6103781309604586 0.4697155935988562 0  0.5386498544067639 0.4004956612388758 0  0.3870414186657364 0.5724608895225564 0  0.6224730899492041 0.56020710137047 0  0.5616366445057851 0.6232199702265419 0  0.571816198372519 0.3813935973495909 0  0.6258524182056586 0.6236848093776484 0  0.6162285449975342 0.3641761772701796 0  0.3641131193203713 0.6169664766948854 0  0.3916874857723993 0.3709111071003127 0  0.6708929793608324 0.5105375687579856 0  0.5076051037330663 0.6710796693343604 0  0.3151134923042118 0.48821887386816 0  0.7385793337011426 0.9803473136611173 0  0.9808239173782718 0.2668799462233578 0  0.2752229778310117 0.9788612692059475 0  0.9841065438417796 0.6919102625429346 0  0.03000369928138284 0.2693502819168713 0  0.4858240417099626 0.3158382855089178 0  0.03008812442140023 0.6977763834033763 0  0.691673699167846 0.02760470009505205 0  0.5918169901968274 0.9879748520901119 0  0.3154697229936223 0.03402430875130404 0  0.425323614047406 0.9903913301662797 0  0.9874422233784715 0.4393920625487987 0  0.03277757492124631 0.4240613884877817 0  0.5372325017794942 0.02200800335012212 0  0.5247773975295102 0.3071510087497118 0  0.4912892203570798 0.2997490112106416 0  0.5271128950848801 0.2919493045218992 0  0.4945162354290388 0.2817623397529845 0  0.5295523724279524 0.2734643802376371 0  0.4956572206125842 0.2597921747004182 0  0.4607713630754351 0.2710082203974088 0  0.5311956316810263 0.2508644844375684 0  0.498119406270862 0.2371760821226191 0  0.3069673456080848 0.5290017646964827 0  0.2986401922422782 0.4963130955225593 0  0.2918363116849493 0.5322250979241085 0  0.2807132474202675 0.5000716953165056 0  0.2733889810462109 0.5353040242864883 0  0.259704476291011 0.5045523776903033 0  0.2698285682289193 0.4682991032362854 0  0.2511122906814155 0.5386338619804255 0  0.269143241736498 0.5707087400412464 0  0.2441374161269361 0.5731778875334301 0  0.2658539047328365 0.605722557597837 0  0.2359713490018397 0.6070658819107312 0  0.261219301499767 0.639683347911123 0  0.2446365712173822 0.4750753517339569 0  0.257939664730725 0.4367296264122545 0  0.5646826242047541 0.2681643570466622 0  0.5661005389257078 0.2428356535948573 0  0.6003908747707492 0.2648817378847249 0  0.6005615034161685 0.2354378369661685 0  0.6344756092955143 0.2599489106276796 0  0.2161080920821145 0.5749632299695121 0  0.2272792437679888 0.6415357222168395 0  0.2550218404397096 0.673695814045595 0  0.6346335384291387 0.2276173616706675 0  0.6673242650597013 0.2525998128368347 0  0.2286343444280782 0.4461187046349309 0  0.243453799621791 0.4061745838034743 0  0.1663618077552792 0.02793595063617126 0  0.8438652401396201 0.03013096245468578 0  0.03026894601274942 0.8459599488942329 0  0.9806740171653847 0.8456119304935905 0  0.2895973372233777 0.6726413262103635 0  0.2832260280694681 0.7050238341139318 0  0.2487584105592982 0.7070230740802654 0  0.3193813494584111 0.7056352054255058 0  0.311991069098389 0.7354145616648985 0  0.3497095244221191 0.7345533536644515 0  0.3409322151995005 0.7645718510824785 0  0.3806535404726364 0.7626116726051727 0  0.6678611024813145 0.286753578894532 0  0.6994754316400714 0.2790093019102889 0  0.6999782741599795 0.3147154551510229 0  0.7303484318336148 0.3064129911941197 0  0.7304701657276997 0.3441610124714742 0  0.7312897980582556 0.2698904405720921 0  0.7601073225248836 0.3339985970956381 0  0.7593280976835729 0.3745014543943039 0  0.7892497125315119 0.3620790926722107 0  0.7872219789245334 0.4046626659123263 0  0.3701917204529204 0.7929381434147504 0  0.4113175901742596 0.7898459941959458 0  0.3294101913793462 0.7942184971061635 0  0.211197665208422 0.416143889254012 0  0.2262206264678941 0.3766127559739752 0  0.2606688827424524 0.3660815110268162 0  0.2438536561846633 0.3367497136321539 0  0.6006394224722995 0.204761315064788 0  0.2070580821112102 0.3466827796636645 0  0.2244655
[...]
<PointData  Scalars="u"> 
<DataArray  type="Float64"  Name="u"  format="ascii">0.0000000000000000e+00  0.0000000000000000e+00  0.0000000000000000e+00  0.0000000000000000e+00  0.0000000000000000e+00  0.0000000000000000e+00  0.0000000000000000e+00  0.0000000000000000e+00  1.7796735483445755e-01  3.2619615088122750e-01  0.0000000000000000e+00  0.0000000000000000e+00  0.0000000000000000e+00  0.0000000000000000e+00  0.0000000000000000e+00  0.0000000000000000e+00  0.0000000000000000e+00  0.0000000000000000e+00  0.0000000000000000e+00  0.0000000000000000e+00  0.0000000000000000e+00  0.0000000000000000e+00  0.0000000000000000e+00  0.0000000000000000e+00  0.0000000000000000e+00  0.0000000000000000e+00  0.0000000000000000e+00  0.0000000000000000e+00  0.0000000000000000e+00  0.0000000000000000e+00  0.0000000000000000e+00  0.0000000000000000e+00  0.0000000000000000e+00  0.0000000000000000e+00  0.0000000000000000e+00  0.0000000000000000e+00  0.0000000000000000e+00  0.0000000000000000e+00  0.0000000000000000e+00  0.0000000000000000e+00  0.0000000000000000e+00  0.0000000000000000e+00  0.0000000000000000e+00  0.0000000000000000e+00  0.0000000000000000e+00  0.0000000000000000e+00  0.0000000000000000e+00  0.0000000000000000e+00  0.0000000000000000e+00  0.0000000000000000e+00  0.0000000000000000e+00  0.0000000000000000e+00  0.0000000000000000e+00  0.0000000000000000e+00  0.0000000000000000e+00  0.0000000000000000e+00  0.0000000000000000e+00  0.0000000000000000e+00  0.0000000000000000e+00  0.0000000000000000e+00  0.0000000000000000e+00  0.0000000000000000e+00  0.0000000000000000e+00  0.0000000000000000e+00  0.0000000000000000e+00  0.0000000000000000e+00  0.0000000000000000e+00  0.0000000000000000e+00  0.0000000000000000e+00  0.0000000000000000e+00  0.0000000000000000e+00  0.0000000000000000e+00  0.0000000000000000e+00  0.0000000000000000e+00  0.0000000000000000e+00  0.0000000000000000e+00  0.0000000000000000e+00  0.0000000000000000e+00  0.0000000000000000e+00  0.0000000000000000e+00  0.0000000000000000e+00  0.0000000000000000e+00  0.0000000000000000e+00  0.0000000000000000e+00  0.0000000000000000e+00  0.0000000000000000e+00  0.0000000000000000e+00  0.0000000000000000e+00  0.0000000000000000e+00  0.0000000000000000e+00  0.0000000000000000e+00  0.0000000000000000e+00  0.0000000000000000e+00  0.0000000000000000e+00  0.0000000000000000e+00  0.0000000000000000e+00  0.0000000000000000e+00  0.0000000000000000e+00  0.0000000000000000e+00  0.0000000000000000e+00  0.0000000000000000e+00  0.0000000000000000e+00  0.0000000000000000e+00  0.0000000000000000e+00  0.0000000000000000e+00  0.0000000000000000e+00  0.0000000000000000e+00  0.0000000000000000e+00  0.0000000000000000e+00  0.0000000000000000e+00  0.0000000000000000e+00  0.0000000000000000e+00  0.0000000000000000e+00  0.0000000000000000e+00  0.0000000000000000e+00  0.0000000000000000e+00  0.0000000000000000e+00  0.0000000000000000e+00  0.0000000000000000e+00  0.0000000000000000e+00  0.0000000000000000e+00  0.0000000000000000e+00  0.0000000000000000e+00  0.0000000000000000e+00  0.0000000000000000e+00  0.0000000000000000e+00  0.0000000000000000e+00  0.0000000000000000e+00  0.0000000000000000e+00  0.0000000000000000e+00  0.0000000000000000e+00  0.0000000000000000e+00  0.0000000000000000e+00  0.0000000000000000e+00  0.0000000000000000e+00  0.0000000000000000e+00  0.0000000000000000e+00  0.0000000000000000e+00  0.0000000000000000e+00  0.0000000000000000e+00  0.0000000000000000e+00  0.0000000000000000e+00  0.0000000000000000e+00  0.0000000000000000e+00  0.0000000000000000e+00  0.0000000000000000e+00  0.0000000000000000e+00  0.0000000000000000e+00  0.0000000000000000e+00  0.0000000000000000e+00  0.0000000000000000e+00  0.0000000000000000e+00  0.0000000000000000e+00  0.0000000000000000e+00  0.0000000000000000e+00  0.0000000000000000e+00  0.0000000000000000e+00  0.0000000000000000e+00  0.0000000000000000e+00  0.0000000000000000e+00  0.0000000000000000e+00  0.0000000000000000e+00  0.0000000000000000e+00  0.0000000000000000e+00  0.0000000000000000e+00  0.0000000000000000e+00  0.0000000000000000e+00  0.0000000000000000e+00  0.0000000000000000e+00  0.0000000000000000e+00  0.0000000000000000e+00  0.0000000000000000e+00  0.0000000000000000e+00  0.0000000000000000e+00  0.0000000000000000e+00  0.0000000000000000e+00  0.0000000000000000e+00  0.0000000000000000e+00  1.8762620547090214e-01  1.9932639247605982e-01  2.0574544773655482e-01  2.0308257445602576e-01  1.9331258747426419e-01  1.9033664648060300e-01  1.9017919765758731e-01  1.9379993752107261e-01  2.0390376452439332e-01  2.0599683359207965e-01  1.9894360835435829e-01  1.8632821024433274e-01  1.7799557874967881e-01  1.9511931259398277e-01  2.0803836157887190e-01  2.1172375392104631e-01  2.0747502576402718e-01  1.9437061668667172e-01  2.9003712934786580e-01  2.7827749145938135e-01  2.7784682380644010e-01  2.8378151733600882e-01  2.8234421868506393e-01  2.7901991510912810e-01  2.5008414845738303e-01  2.6947085456444358e-01  3.2221679129654562e-01  3.4362491789513361e-01  3.2686940637248058e-01  3.2652284547139965e-01  3.2586455860826796e-01  2.4832025970774385e-01  2.8652741113941715e-01  2.7214033013319305e-01  2.7657775241238497e-01  3.2668250635596585e-01  2.9944943132506746e-01  2.7216498171882247e-01  2.8592870614891236e-01  2.5493421521123127e-01  2.4244752481804019e-01  2.4125274673679573e-01  2.4801454565237027e-01  1.7240060784652722e-01  1.7504916601983178e-01  1.7560342213813518e-01  1.8803285399861919e-01  1.7949610563084414e-01  1.7994121828962459e-01  1.7100995928917628e-01  -8.0803973095726796e-03  -7.6556075925485936e-03  -8.0974328883738119e-03  -6.1332533916863049e-03  -9.9389289554988013e-03  1.7079554592566043e-01  -8.8818752666855079e-03  -8.2711663444693835e-03  -3.7696290742688619e-03  -9.2186706055771544e-03  -2.7752113341189197e-03  -3.5310019236156733e-03  -5.7166248716858164e-03  -4.1193482404624001e-03  1.5803223316471202e-01  1.4542819609179072e-01  1.3383148051685226e-01  1.2115514201263879e-01  1.0976353700854352e-01  9.5940166093283222e-02  1.0313504237490706e-01  8.5270605166378979e-02  7.3922773885639032e-02  1.5792493955589326e-01  1.4509491685001522e-01  1.3356520946428702e-01  1.2083714669715181e-01  1.0951223631130062e-01  9.6633070171708385e-02  1.0412951189863680e-01  8.5168151424269312e-02  9.5454238200234687e-02  7.1374736860720309e-02  7.9049850381036013e-02  5.4943041584855079e-02  6.0455654614333970e-02  7.9605540249794743e-02  8.4267623768361749e-02  9.5666406168699064e-02  7.1444472646632895e-02  7.9708095587384648e-02  5.6016119566000555e-02  6.1126290919604961e-02  4.9099591414578814e-02  3.8121042714119917e-02  4.1546586984041955e-02  3.9992583437180040e-02  4.2249503765645034e-02  6.1266397733190710e-02  6.2792411311316493e-02  -1.1199249799460565e-02  -1.1792882145919746e-02  -1.1816463545381831e-02  -8.8357425690551213e-03  6.2691636027178393e-02  4.1839444137938685e-02  2.4918354881457942e-02  6.0328019644963052e-02  3.9194218028335906e-02  5.5544945159286645e-02  3.4074264889272503e-02  4.7750552227839881e-02  6.2814804289509821e-02  4.1807390577426752e-02  6.0536137008430017e-02  3.8849541090477294e-02  5.5147190460674060e-02  2.3489699640076127e-02  3.3545933748863700e-02  4.7380682539414513e-02  2.6654000231119673e-02  3.7622892907055588e-02  2.7292289127568401e-02  3.7869530287508661e-02  1.6600447428626316e-02  4.2783591071095292e-02  4.1847108545288982e-02  6.0599715597801841e-02  3.8460185327537984e-02  3.5962496191937587e-02  2.3067012303764168e-02  1.9028658673029067e-02  3.2712344568267993e-02  1.3385283853913538e-02  2.4871304452598161e-02  6.8289897605185741e-03  1.5963198374550614e-02  2.2267298765293007e-02  -1.7410051726000253e-03  -4.9167049102398826e-03  1.9071146899060309e-02  2.6956956027329868e-02  4.6831273271147104e-02  3.3027928799711406e-02  5.3104552183803937e-02  3.6581724521923854e-02  5.5780832259387937e-02  3.7065207105589783e-02  5.4439211064160019e-02  3.4558278529956382e-02  4.9644873759765486e-02  2.9105461989900733e-02  4.1994669873542313e-02  2.1593895171167905e-02  3.1812499046654792e-02  1.2843449884037164e-02  2.0798515437059996e-02  2.0919984438706133e-02  4.0569730213604067e-03  1.0067636458381391e-02  2.7862173794287126e-02  1.4882297739280423e-02  1.0213274439104652e-02  -1.8931660373293381e-03  -8.5349981932081476e-03  3.2725796796435419e-02  1.8055179511026871e-02  -1.2676188533973426e-02  1.9536928400275873e-02  4.1220738135199705e-03  -1.7165710257573040e-02  6.0432345335216478e-02  4.9582135710601161e-02  -4.8496449345023351e-03  -1.1888260316164238e-02  -9.7265596295606112e-03  -6.5753814073453770e-03  -1.1404417955468664e-02  -3.7234533096414707e-03  1.6808176847957643e-02  7.1915330122893639e-02  6.1975876959280288e-03  7.2858592825281263e-03  1.0234792412745126e-02  -9.2448363391467517e-03  1.9010559186765759e-02  5.3623808753147227e-02  1.2075137298457965e-02  -1.2672987820570322e-02  4.1531320226452832e-02  4.7581171570482382e-02  8.0840345553956690e-03  6.5243985295795670e-02  5.0230305096449880e-03  -1.9353812371894520e-03  1.1205860836918394e-01  2.7232899642192068e-02  1.0930570478528745e-02  5.5078923405920124e-03  7.5506966890457813e-02  7.7714539684670098e-02  7.4145533030634397e-02  7.5581622828151659e-02  -1.9352674167977452e-02  -1.5342420670570216e-02  -3.6125858985747404e-03  -2.1769625362072553e-02  -1.5595881474747619e-02  -1.0452346187535790e-02  -1.9671880926433790e-02  -1.3120377951135196e-03  -1.9306921533054220e-02  8.5034141077402370e-02  5.6366150861846325e-03  1.4254047952747989e-02  -1.9099128767818376e-03  -4.5107896885248485e-03  5.1821491060857192e-02  -1.9481426452594600e-02  9.9054097739236027e-02  9.9985277580978832e-02  -9.5766839449827959e-03  -8.4349254894351567e-03  -1.6792763686963884e-02  5.1374782992800647e-04  1.6963719388111108e-02  3.9210548050129055e-03  1.0452733238276947e-01  9.6067781976530466e-03  -1.6655408867528529e-03  -1.7603124446820494e-03  -9.7180253201558479e-03  -1.1106067963777994e-02  -1.5559005521882425e-02  -1.7756383731503497e-02  -1.6898193850610088e-02  -1.3917716360716885e-02  1.5307518739888032e-01  9.4996151894390077e-02  -9.4864227543468901e-03  -1.5790835683824170e-02  -1.2313285620547407e-02  -1.8841421835213503e-02  -2.1420943906417144e-02  -2.1633994403219583e-02  1.4522431008890693e-01  -6.0999157613658523e-03  -8.5887239666929752e-03  -2.1793233250501778e-02  -2.2676382396320215e-02  1.7167416567858332e-01  -6.4494816301188494e-03  -1.0252591150543295e-02  -2.1811594131343107e-02  1.6884730782293852e-01  1.5068268846773106e-01  1.4604566283244755e-01  -1.2569847379386210e-02  2.5592027670861112e-03  8.4369733099618257e-03  -3.0385448990258622e-03  2.2922374390048947e-02  1.4031590274991337e-02  2.6865627208659862e-03  5.6015172733285268e-03  1.8513780372807868e-02  7.4132561957424006e-03  2.1143730812634487e-02  6.9961938711706251e-02  8.2966896348385544e-03  -1.4335604133035907e-03  1.2839569086021765e-01  1.5167963185286754e-01  1.5568067320614112e-01  1.5986880647262497e-01  -2.0821615851329248e-02  -2.1851436505929103e-02  -6.6870619489996230e-03  -1.0013655109847150e-02  -1.0835665301139595e-02  -9.2072933116355803e-03  -1.5769035452719380e-02  -1.7069540471403331e-02  -1.9010765993997019e-02  1.9165932796564530e-02  1.4547190297046156e-01  1.3723440048709237e-01  1.3818603141297481e-01  1.2062520198583632e-01  1.5824569261373464e-01  1.3456196791815356e-01  3.6185766868230093e-02  3.8814815029141185e-02  -1.0607889421660821e-02  -1.2044564702778128e-02  -6.1559686384668223e-03  -9.0325412084846356e-03  -2.4570135522318875e-03  -6.2842768468707264e-03  -3.9201796374790292e-04  -1.8143572563411644e-02  -8.4937291770365419e-03  7.1685090504810967e-03  -1.2117430752242669e-03  -3.3832996865807677e-03  -1.9628109025337903e-02  1.1655208947684155e-02  1.4283291100793212e-03  1.3031616903474161e-02  1.1919098502959462e-03  8.6827164111569610e-03  -8.2287603888064222e-05  4.5914784031515126e-03  1.6761822708840982e-02  9.6826279250122951e-03  -4.5036404155254225e-04  2.2842318695267608e-03  -4.9044950786137059e-03  -4.2871812082064574e-03  4.9138996890578691e-03  -4.3701957433488229e-03  -1.0785192290411858e-02  -1.1961541764026844e-02  -1.5145316090295159e-02  -1.7501307638005611e-02  -1.2863310488104017e-02  -1.8827852026986044e-02  -1.3432998817205494e-02  -1.9067768416763234e-02  -2.1574697889368440e-02  -1.3579503794248028e-02  -1.8190810813610715e-02  -1.3221206624302553e-02  -4.8450221720060553e-03  -1.7793771322063705e-02  -1.6148470968879780e-02  -1.2258544782186480e-02  -1.8560565515115469e-02  3.4374924769260948e-02  1.2266327101113474e-01  1.3834524119094208e-01  -4.8283475218418928e-03  -3.3061809455955735e-05  -4.8168380118901871e-03  1.0791576679245127e-01  1.5348636655045098e-01  1.4619198250711768e-01  -8.6217769577314855e-03  -5.3595188485005595e-03  -4.9578818037006468e-03  5.7335112478512369e-02  5.8862487588469473e-02  -1.8782855561248864e-02  8.9850450802203153e-03  1.5120759886636728e-01  -2.0620234204386339e-02  -1.9100424516921604e-02  -1.9905247048954560e-02  -6.8916276264026520e-03  1.2669186456311757e-01  1.3853180031358825e-01  6.7232164859097020e-03  -2.0838882323477081e-02  -2.0319078323690346e-02  1.1303911993263975e-01  1.1045131365451835e-01  -7.5894215882676965e-03  -1.0697413473186071e-02  -2.0790237589717729e-02  -2.0512975140932692e-02  -1.4705465666532466e-02  -1.1228903628763985e-03  -4.1789212263370172e-03  -2.2381425681416607e-03  -1.3427531909480929e-02  -4.2245798853690507e-03  -2.0251132979545984e-02  -5.6257132314356832e-03  -1.3504306325891479e-02  -1.3525703424719804e-02  -1.0521363692375703e-02  -9.7732435768661981e-03  -1.0539981651301327e-02  -8.4320017276938840e-03  -1.0299951271056734e-02  3.9336706320346602e-02  -3.6903889635195126e-03  -7.0933210592171395e-03  9.8612335754414155e-03  1.0491215179348502e-01  -3.4326708779691935e-03  -1.5025889958894065e-02  -5.5466321823816828e-03  -4.3898894461769167e-03  1.0860823064033927e-01  1.2552903060501769e-01  1.0149832843799993e-01  -5.8261568442534283e-03  -5.1882494930849381e-03  -7.0501017227037098e-03  -8.3905101338438096e-03  1.8200034495054440e-01  1.5746821827722163e-01  1.5936615522152828e-01  1.3641337967716285e-01  1.3640588610038445e-01  1.4878331630141570e-01  1.5437615824973119e-01  1.2858776159072138e-01  1.1194531716731267e-01  1.4424908371082878e-01  1.2041266717644408e-01  5.5073146020981310e-03  2.7661724843131480e-02  3.3103536860530587e-02  -1.7539474107408238e-02  -1.6007753908267378e-02  -9.1679845610061709e-03  1.1444836933186921e-01  -1.6869352305039345e-02  -1.5316143289658402e-02  -1.2316911934745121e-02  1.8120141683126825e-01  1.5483585280434659e-01  1.7280776196419712e-01  1.4778483592403349e-01  1.3083537225439251e-01  1.2342597963251833e-01  1.3761635645797243e-01  1.1125503698349518e-01  1.2215579120393416e-01  9.4510349432470608e-02  1.0587357612010687e-01  1.4789559757637924e-01  8.5881545030809761e-02  1.0406152256457492e-01  5.4848454963704683e-02  1.7869845128050302e-01  1.1867166123039256e-01  1.8126598924204632e-01  -1.3633369927328715e-02  -1.3161906857207011e-02  -1.7778749604186725e-02  -1.7888265121180327e-02  1.8146684387258180e-01  1.3391307009626058e-01  1.9242214090847219e-02  -6.6867197226057754e-03  7.4754599787685269e-02  4.1804903301556146e-02  1.5087565226490048e-02  5.9924366638969925e-02  5.4741040639453828e-02  6.9895928674985036e-02  8.0102287598093264e-02  1.1029855081753552e-01  1.1300162204035642e-01  3.0916566365306129e-02  4.2619505251392444e-02  3.0297258435551932e-02  -7.4656635548679571e-03  -8.0353374555434034e-03  2.2461710124880931e-02  -1.6833922287682247e-02  -1.6319003758651696e-02  7.5143137187338782e-02  7.0121331210067625e-02  8.8180173289663433e-02  7.1011942899908753e-02  5.2829791572577681e-02  -4.5240443664591049e-03  -6.2089399682046060e-03  -1.0024212342466348e-02  -6.3702481027302933e-03  -6.4162212500721493e-03  1.5045917618287652e-01  -5.9611859256290421e-03  -4.3632929280318991e-03  8.3641761517904926e-03  5.5643915762792215e-03  4.7297253816773042e-02  5.5351189494749278e-02  8.0068494317688421e-02  -5.7430366685177620e-03  8.5260557807914306e-02  -1.1395100711856933e-02  -1.8290367247341593e-02  9.9213262320105897e-02  -4.2903017525779928e-03  -8.6152826790327711e-03  -1.5532690542907814e-02  5.4191442909032966e-02  -9.4541664200995888e-03  -8.9850681425374737e-03  8.4599315016611401e-02  -1.4858673932334967e-02  -2.9531362645312796e-03  -4.3558130808589975e-03  -4.2850069030946954e-03  -5.1724097543016552e-03  -6.2979439312253697e-03  -8.1090052370484979e-03  -1.2416283110881608e-02  -9.2960091082139006e-03  -1.3916682758565330e-02  1.6343272431637781e-01  -6.4685059314556299e-03  -1.0384382337683276e-02  -1.3367851380616016e-02  -9.9556871847014655e-03  -1.6477489832648826e-02  -1.1351454988950630e-02  4.1005020668313630e-02  2.1668160752450528e-02  -1.1490725584207787e-02  -1.5778341457690387e-02  -1.9917038366968585e-02  -1.5866874854663031e-02  -1.9363801918679823e-02  -1.1318431133730267e-02  -6.3908498222947632e-03  -5.2891980060184975e-03  -1.1360591117325689e-02  -4.2900648985929541e-03  -9.1703456989331317e-03  -8.8325626093464782e-03  1.3089734753751109e-01  -1.2898228583086813e-02  1.8376201564989433e-01  -7.0966513090788361e-03  1.2781203799072749e-01  -9.3505382763511644e-03  1.1928559399896137e-01  -6.8028386670706048e-03  1.2027237970430539e-01  -1.1048249888089121e-02  -1.8308210410292073e-02  1.6105887622868509e-01  -9.1059444041506742e-03  8.5918931757168401e-02  -4.7747372053158210e-03  1.4201114089330980e-03  -1.6799355109550492e-02  -1.8822094860162609e-02  -1.5467967173265372e-02  7.0525813637016899e-03  -5.2136244936285675e-04  -5.7315056943432760e-03  2.1075887451440584e-02  7.8240757219935723e-03  1.3388418066399735e-01  3.2861206535389625e-02  7.6974372943313342e-03  8.2037974017588999e-02  6.2107949907409962e-02  1.6256171225854257e-01  3.3861569009670467e-02  -1.9125678367621413e-02  2.3568357710434040e-02  2.8967641710988439e-04  -9.1457662687447674e-03  4.9520596855431247e-02  4.7659221605291928e-04  8.6451900291907552e-02  2.5548877102652939e-02  -2.1998645582137339e-02  8.4761576054595320e-02  8.0068308114293288e-02  -8.0521102988538457e-03  -1.1983687377102564e-03  2.0259244666914082e-02  -1.3159968713908178e-02  3.2496776078583737e-03  1.5305555745776873e-02  3.7117633074500124e-04  5.0208539943419816e-03  7.8412940221137314e-03  -1.6436127022415641e-02  -2.0579618869631403e-02  -2.0980336867043519e-02  -2.0243747967419165e-02  -7.5549276914784608e-03  -1.2906618498156393e-02  7.1603327318403771e-04  9.8146138959243068e-02  1.1545007837554792e-02  5.7267356773928843e-02  -5.7984869054189423e-03  5.6238431798115475e-03  -1.5871228555889886e-03  2.1171156237420143e-02  6.1771022484341631e-02  -5.3944872750845687e-03  -9.6486385807665522e-03  2.6705578166864991e-02  -2.1742806225995403e-03  1.9997354698210474e-02  -4.7848146777365976e-04  -8.9098409165502806e-03  1.6172291898029803e-01  1.1518497901889552e-02  -4.0655424335411527e-03  2.4938173648219045e-02  -9.8782552220832327e-03  3.3990864202504467e-02  7.9889244803935822e-03  2.6184191705835313e-02  1.3470725541505116e-01  -2.8298181576392307e-03  -2.0955462908754038e-02  -6.8496110440544843e-03  -1.1457411730407600e-02  1.3657073899628031e-01  -3.8465673479587295e-03  7.7291406606273289e-02  2.5345511615195736e-02  -1.6554623751452203e-02  -6.4512645703450455e-03  2.7242048925006190e-03  1.0195637495804613e-01  2.0972828365688919e-02  -1.4884908056273601e-02  -2.0607205554312155e-02  1.2912504360818367e-01  -1.4983223965775340e-02  1.1061574251431296e-01  -1.1290797389682930e-02  2.1449527524800761e-02  1.2909565454415564e-01  -1.6425336465815784e-02  -2.1268667469419956e-02  -8.6590651025569478e-03  1.3084696014803948e-01  -1.5669067042752217e-02  4.5822760086189291e-03  -4.1744267068848312e-03  -4.4172478486585072e-03  -1.2680050172514128e-02  -5.8812644912713723e-03  8.1600157611067467e-03  -2.5531679718961758e-0