<?xml version="1.0"?>
<VTKFile type="UnstructuredGrid"  version="0.1"  >
<UnstructuredGrid>
<Piece  NumberOfPoints="1251" NumberOfCells="2404">
<Points>
<DataArray  type="Float64"  NumberOfComponents="3"  format="ascii">0 0 0  0 1 0  1 1 0  1 0 0  1.1 -0.1 0  -0.1 -0.1 0  1.1 1.1 0  -0.1 1.1 0  0.5002450602054076 0.5003802534761486 0  0.2543125347843274 0.5428863986421181 0  0 0.9499999999997918 0  0 0.8999999999995836 0  0 0.8499999999996529 0  0 0.7999999999999998 0  0 0.7500000000003466 0  0 0.7000000000006934 0  0 0.6500000000010401 0  0 0.6000000000013869 0  0 0.5500000000017335 0  0 0.5000000000020587 0  0 0.4500000000018723 0  0 0.4000000000016644 0  0 0.3500000000014564 0  0 0.3000000000012483 0  0 0.2500000000010403 0  0 0.2000000000008322 0  0 0.1500000000006241 0  0 0.100000000000416 0  0 0.05000000000020799 0  0.04999999999989965 0 0  0.09999999999981467 0 0  0.1499999999997036 0 0  0.1999999999995579 0 0  0.2499999999994121 0 0  0.2999999999992664 0 0  0.3499999999991206 0 0  0.3999999999989749 0 0  0.4499999999988292 0 0  0.4999999999986943 0 0  0.5499999999988151 0 0  0.5999999999989468 0 0  0.6499999999990784 0 0  0.69999999999921 0 0  0.7499999999993417 0 0  0.7999999999994734 0 0  0.8499999999996051 0 0  0.8999999999997368 0 0  0.9499999999998684 0 0  1 0.04999999999989965 0  1 0.09999999999981467 0  1 0.1499999999997036 0  1 0.1999999999995579 0  1 0.2499999999994121 0  1 0.2999999999992664 0  1 0.3499999999991206 0  1 0.3999999999989749 0  1 0.4499999999988292 0  1 0.4999999999986943 0  1 0.5499999999988151 0  1 0.5999999999989468 0  1 0.6499999999990784 0  1 0.69999999999921 0  1 0.7499999999993417 0  1 0.7999999999994734 0  1 0.8499999999996051 0  1 0.8999999999997368 0  1 0.9499999999998684 0  0.9499999999997918 1 0  0.8999999999995836 1 0  0.8499999999996529 1 0  0.7999999999999998 1 0  0.7500000000003466 1 0  0.7000000000006934 1 0  0.6500000000010401 1 0  0.6000000000013869 1 0  0.5500000000017335 1 0  0.5000000000020587 1 0  0.4500000000018723 1 0  0.4000000000016644 1 0  0.3500000000014564 1 0  0.3000000000012483 1 0  0.2500000000010403 1 0  0.2000000000008322 1 0  0.1500000000006241 1 0  0.100000000000416 1 0  0.05000000000020799 1 0  -0.1 1.05000000000004 0  -0.1 1.000000000000079 0  -0.1 0.9500000000001624 0  -0.1 0.9000000000003032 0  -0.1 0.850000000000444 0  -0.1 0.8000000000005848 0  -0.1 0.7500000000007256 0  -0.1 0.7000000000008665 0  -0.1 0.6500000000010508 0  -0.1 0.6000000000012352 0  -0.1 0.5500000000014196 0  -0.1 0.500000000001539 0  -0.1 0.4500000000014195 0  -0.1 0.4000000000013 0  -0.1 0.3500000000011588 0  -0.1 0.3000000000010178 0  -0.1 0.2500000000008986 0  -0.1 0.2000000000007579 0  -0.1 0.1500000000006174 0  -0.1 0.1000000000005272 0  -0.1 0.05000000000040083 0  -0.1 2.671196597248127e-13 0  -0.1 -0.0499999999998666 0  -0.0500000000000906 -0.1 0  -1.730560139634463e-13 -0.1 0  0.04999999999975802 -0.1 0  0.09999999999961506 -0.1 0  0.1499999999994613 -0.1 0  0.199999999999302 -0.1 0  0.2499999999991446 -0.1 0  0.2999999999990088 -0.1 0  0.3499999999988296 -0.1 0  0.3999999999986936 -0.1 0  0.4499999999985143 -0.1 0  0.4999999999984002 -0.1 0  0.5499999999985247 -0.1 0  0.5999999999986493 -0.1 0  0.6499999999987955 -0.1 0  0.6999999999989417 -0.1 0  0.7499999999990659 -0.1 0  0.7999999999992116 -0.1 0  0.8499999999993573 -0.1 0  0.8999999999994526 -0.1 0  0.949999999999584 -0.1 0  0.9999999999997226 -0.1 0  1.049999999999861 -0.1 0  1.1 -0.0500000000000906 0  1.1 -1.730560139634463e-13 0  1.1 0.04999999999975802 0  1.1 0.09999999999961506 0  1.1 0.1499999999994613 0  1.1 0.199999999999302 0  1.1 0.2499999999991446 0  1.1 0.2999999999990088 0  1.1 0.3499999999988296 0  1.1 0.3999999999986936 0  1.1 0.4499999999985143 0  1.1 0.4999999999984002 0  1.1 0.5499999999985247 0  1.1 0.5999999999986493 0  1.1 0.6499999999987955 0  1.1 0.6999999999989417 0  1.1 0.7499999999990659 0  1.1 0.7999999999992116 0  1.1 0.8499999999993573 0  1.1 0.8999999999994526 0  1.1 0.949999999999584 0  1.1 0.9999999999997226 0  1.1 1.049999999999861 0  1.05000000000004 1.1 0  1.000000000000079 1.1 0  0.9500000000001624 1.1 0  0.9000000000003032 1.1 0  0.850000000000444 1.1 0  0.8000000000005848 1.1 0  0.7500000000007256 1.1 0  0.7000000000008665 1.1 0  0.6500000000010508 1.1 0  0.6000000000012352 1.1 0  0.5500000000014196 1.1 0  0.500000000001539 1.1 0  0.4500000000014195 1.1 0  0.4000000000013 1.1 0  0.3500000000011588 1.1 0  0.3000000000010178 1.1 0  0.2500000000008986 1.1 0  0.2000000000007579 1.1 0  0.1500000000006174 1.1 0  0.1000000000005272 1.1 0  0.05000000000040083 1.1 0  2.671196597248127e-13 1.1 0  -0.0499999999998666 1.1 0  0.2595732657048621 0.5666287977515001 0  0.267075121776557 0.5898169689057373 0  0.276876103992382 0.6123357889103971 0  0.2889712240935215 0.6338830708534637 0  0.3033010481354558 0.6541625185106257 0  0.3197356367807782 0.6730203016019526 0  0.3379734301079881 0.6902416793737457 0  0.3579971656827345 0.7055318213023721 0  0.3795684097584643 0.7186627956693522 0  0.4023923418647123 0.7296360755596887 0  0.4261068013256591 0.7383013374569588 0  0.4505307589424156 0.7444889903364617 0  0.4754346382400997 0.7481862128487721 0  0.5004556149465315 0.7493366455366522 0  0.525408445557519 0.7480114899449108 0  0.5500020577944994 0.7442454046781392 0  0.5739411934516058 0.7379955502512047 0  0.5971118475206574 0.7293999933265043 0  0.6192794799238552 0.7186475074648815 0  0.6402464023274307 0.7057815896573104 0  0.6598050923376586 0.6909105045595749 0  0.6778194014605913 0.6742203132457362 0  0.6941261117233168 0.655881991883585 0  0.7085818162942549 0.6360173239459391 0  0.7210016872701165 0.6148006415361359 0  0.7312867237997079 0.5924297981062396 0  0.7393951054443437 0.5691369496765357 0  0.7452013641010127 0.5450611851904614 0  0.7485524475691606 0.5204398505695189 0  0.7494176961180959 0.4955299354856452 0  0.7478660919934065 0.4705316216948164 0  0.7437016695777227 0.4457554984108952 0  0.7369581005144966 0.42146317326667 0  0.7277720399401101 0.3979067051526093 0  0.7162967059687345 0.375357225400585 0  0.7026213660353666 0.3541309222522097 0  0.6868574550865014 0.3344423842340017 0  0.6692810828073955 0.3164995124773338 0  0.6501077087301812 0.3003546834750006 0  0.6296031614458648 0.2864567447628549 0  0.6078472325348807 0.2748210977920419 0  0.5851644460355298 0.2654743342561295 0  0.561820278009602 0.2584046565075777 0  0.5379934885762486 0.2535806520908819 0  0.5138037140052123 0.2511751162914936 0  0.489435030778862 0.2511718476595718 0  0.4650234265168272 0.2534763546170927 0  0.4408089517777414 0.2581948049234198 0  0.4170858189501415 0.2654371888384082 0  0.3940985067895025 0.2751270255242555 0  0.3720377552932235 0.2870492797173731 0  0.3512164228284593 0.3013389825083168 0  0.3318217317012516 0.3176432612114455 0  0.3141171776146395 0.3357293740207338 0  0.2982014315460242 0.3554344424359784 0  0.2844232295836889 0.3765244520289517 0  0.2729003805403371 0.3988126174197699 0  0.2635980464498726 0.4220229511114405 0  0.2568861562865971 0.4458144930861012 0  0.2526937481517984 0.4700455316787766 0  0.2509165791081507 0.4944167092846393 0  0.251450323055628 0.5187486206540782 0  0.5460517573497425 0.2761364739241824 0  0.6264649394750993 0.3110580027319947 0  0.4576083460591472 0.2750454539521714 0  0.275677684001591 0.5498844083976716 0  0.3134546496125458 0.6340384022809241 0  0.2757410429211668 0.4625485975283539 0  0.6545024082249892 0.6671543029410977 0  0.7077825690651918 0.5948993643252514 0  0.7288070231376452 0.5085580437046517 0  0.5795011966850776 0.7137654015830989 0  0.488740441477425 0.7251443701838016 0  0.3102045469326972 0.3781887776930282 0  0.3712476808433486 0.3084765735812804 0  0.4220356958035283 0.7129652951848917 0  0.6895520367035157 0.3753006095229819 0  0.7203723968758313 0.4394316968872754 0  0.3609556107524673 0.6798186951719152 0  0.3377755131006777 0.3412548603282115 0  0.4144076981063503 0.2893801082495012 0  0.2884673074125158 0.4188625799340803 0  0.6617486953084794 0.3401969682008417 0  0.6846087447632317 0.6333286614917879 0  0.533623452198867 0.7263609662069408 0  0.7226555565500311 0.5531607598269992 0  0.6198990009884757 0.6952118218970479 0  0.5022400777172324 0.2719615818896642 0  0.2713888662762622 0.5055893203911063 0  0.2897127037388388 0.5925972846608082 0  0.5918541215505467 0.2883470669497374 0  0.3807010413381348 0.6943595742311198 0  0.3845813768958602 0.6694854356758069 0  0.3641577487612095 0.6540899926244816 0  0.3884760622088322 0.6437885922150259 0  0.3659254483766276 0.627523875551888 0  0.3950536182776039 0.6146138170616712 0  0.4193352695240226 0.6327618402131751 0  0.3700364042365052 0.5992406313928766 0  0.3955515500548595 0.5838913829154192 0  0.3637605719851914 0.5645081444783473 0  0.4299117725485506 0.5956458007486618 0  0.4529565784337064 0.637828947339499 0  0.4787256865994859 0.5987285500459182 0  0.4887994546594017 0.6392745981111571 0  0.5203836654646533 0.6081939598229829 0  0.5503923003540494 0.6431166897351895 0  0.5658104073904653 0.6060373208378256 0  0.4116372518846031 0.5477766454797306 0  0.3746786382548347 0.5203074732420816 0  0.5866118243545818 0.6356771794922209 0  0.6094273758944555 0.609808047403178 0  0.5906114770926147 0.5716311271584947 0  0.6373872101224407 0.5768598443493974 0  0.6166605789267142 0.5393204759729612 0  0.654701829260452 0.5430770704060858 0  0.645194041719674 0.5044904005563913 0  0.6012872785954658 0.5017680125187213 0  0.6327338609867815 0.4659554148683259 0  0.5853908647409012 0.4629288042636142 0  0.6183409386443763 0.4284858492268581 0  0.5704415902529199 0.4235141606183961 0  0.6021620534136399 0.3906769642860242 0  0.5542168503971376 0.3856303878104538 0  0.5818032953987644 0.3584555078037149 0  0.5441361877435291 0.3479395467704989 0  0.5166300027665728 0.3781798161717957 0  0.5009506101438082 0.3401308422696607 0  0.4797760171855561 0.3692811082044511 0  0.4650944539460706 0.338050047654315 0  0.4397398806819717 0.3585062353554415 0  0.4554
[...]
<PointData  Scalars="u"> 
<DataArray  type="Float64"  Name="u"  format="ascii">0.0000000000000000e+00  0.0000000000000000e+00  0.0000000000000000e+00  0.0000000000000000e+00  0.0000000000000000e+00  0.0000000000000000e+00  0.0000000000000000e+00  0.0000000000000000e+00  7.2942189349738362e-01  4.0544928846697165e-01  0.0000000000000000e+00  0.0000000000000000e+00  0.0000000000000000e+00  0.0000000000000000e+00  0.0000000000000000e+00  0.0000000000000000e+00  0.0000000000000000e+00  0.0000000000000000e+00  0.0000000000000000e+00  0.0000000000000000e+00  0.0000000000000000e+00  0.0000000000000000e+00  0.0000000000000000e+00  0.0000000000000000e+00  0.0000000000000000e+00  0.0000000000000000e+00  0.0000000000000000e+00  0.0000000000000000e+00  0.0000000000000000e+00  0.0000000000000000e+00  0.0000000000000000e+00  0.0000000000000000e+00  0.0000000000000000e+00  0.0000000000000000e+00  0.0000000000000000e+00  0.0000000000000000e+00  0.0000000000000000e+00  0.0000000000000000e+00  0.0000000000000000e+00  0.0000000000000000e+00  0.0000000000000000e+00  0.0000000000000000e+00  0.0000000000000000e+00  0.0000000000000000e+00  0.0000000000000000e+00  0.0000000000000000e+00  0.0000000000000000e+00  0.0000000000000000e+00  0.0000000000000000e+00  0.0000000000000000e+00  0.0000000000000000e+00  0.0000000000000000e+00  0.0000000000000000e+00  0.0000000000000000e+00  0.0000000000000000e+00  0.0000000000000000e+00  0.0000000000000000e+00  0.0000000000000000e+00  0.0000000000000000e+00  0.0000000000000000e+00  0.0000000000000000e+00  0.0000000000000000e+00  0.0000000000000000e+00  0.0000000000000000e+00  0.0000000000000000e+00  0.0000000000000000e+00  0.0000000000000000e+00  0.0000000000000000e+00  0.0000000000000000e+00  0.0000000000000000e+00  0.0000000000000000e+00  0.0000000000000000e+00  0.0000000000000000e+00  0.0000000000000000e+00  0.0000000000000000e+00  0.0000000000000000e+00  0.0000000000000000e+00  0.0000000000000000e+00  0.0000000000000000e+00  0.0000000000000000e+00  0.0000000000000000e+00  0.0000000000000000e+00  0.0000000000000000e+00  0.0000000000000000e+00  0.0000000000000000e+00  0.0000000000000000e+00  0.0000000000000000e+00  0.0000000000000000e+00  0.0000000000000000e+00  0.0000000000000000e+00  0.0000000000000000e+00  0.0000000000000000e+00  0.0000000000000000e+00  0.0000000000000000e+00  0.0000000000000000e+00  0.0000000000000000e+00  0.0000000000000000e+00  0.0000000000000000e+00  0.0000000000000000e+00  0.0000000000000000e+00  0.0000000000000000e+00  0.0000000000000000e+00  0.0000000000000000e+00  0.0000000000000000e+00  0.0000000000000000e+00  0.0000000000000000e+00  0.0000000000000000e+00  0.0000000000000000e+00  0.0000000000000000e+00  0.0000000000000000e+00  0.0000000000000000e+00  0.0000000000000000e+00  0.0000000000000000e+00  0.0000000000000000e+00  0.0000000000000000e+00  0.0000000000000000e+00  0.0000000000000000e+00  0.0000000000000000e+00  0.0000000000000000e+00  0.0000000000000000e+00  0.0000000000000000e+00  0.0000000000000000e+00  0.0000000000000000e+00  0.0000000000000000e+00  0.0000000000000000e+00  0.0000000000000000e+00  0.0000000000000000e+00  0.0000000000000000e+00  0.0000000000000000e+00  0.0000000000000000e+00  0.0000000000000000e+00  0.0000000000000000e+00  0.0000000000000000e+00  0.0000000000000000e+00  0.0000000000000000e+00  0.0000000000000000e+00  0.0000000000000000e+00  0.0000000000000000e+00  0.0000000000000000e+00  0.0000000000000000e+00  0.0000000000000000e+00  0.0000000000000000e+00  0.0000000000000000e+00  0.0000000000000000e+00  0.0000000000000000e+00  0.0000000000000000e+00  0.0000000000000000e+00  0.0000000000000000e+00  0.0000000000000000e+00  0.0000000000000000e+00  0.0000000000000000e+00  0.0000000000000000e+00  0.0000000000000000e+00  0.0000000000000000e+00  0.0000000000000000e+00  0.0000000000000000e+00  0.0000000000000000e+00  0.0000000000000000e+00  0.0000000000000000e+00  0.0000000000000000e+00  0.0000000000000000e+00  0.0000000000000000e+00  0.0000000000000000e+00  0.0000000000000000e+00  0.0000000000000000e+00  0.0000000000000000e+00  0.0000000000000000e+00  0.0000000000000000e+00  0.0000000000000000e+00  0.0000000000000000e+00  0.0000000000000000e+00  0.0000000000000000e+00  0.0000000000000000e+00  0.0000000000000000e+00  0.0000000000000000e+00  0.0000000000000000e+00  0.0000000000000000e+00  0.0000000000000000e+00  4.0585198645644066e-01  4.0554853219400305e-01  4.0616920548949376e-01  4.0641117744628141e-01  4.0649711444460529e-01  4.0684639778992127e-01  4.0693029981102352e-01  4.0696575076940555e-01  4.0686056319045821e-01  4.0673986162329256e-01  4.0634559969531620e-01  4.0570390998836314e-01  4.0563995738926767e-01  4.0571646981684967e-01  4.0557768013076695e-01  4.0579772536344533e-01  4.0646188312430204e-01  4.0705023411354191e-01  4.0722609381838015e-01  4.0758097609794691e-01  4.0809920025627072e-01  4.0827578184749586e-01  4.0813254014824879e-01  4.0793205153572970e-01  4.0748729338144274e-01  4.0682659138131894e-01  4.0622970509497280e-01  4.0580288145062915e-01  4.0548695847311905e-01  4.0541370788191378e-01  4.0519595101338590e-01  4.0541342864829860e-01  4.0586538130986660e-01  4.0658016044243356e-01  4.0706375201733003e-01  4.0702285372102570e-01  4.0719603436662105e-01  4.0747973868372239e-01  4.0632422669680990e-01  4.0622006311270115e-01  4.0590483819245138e-01  4.0591755516608269e-01  4.0576073566987664e-01  4.0521499982969100e-01  4.0518051466001626e-01  4.0539898824466369e-01  4.0568945203816853e-01  4.0597784661198794e-01  4.0652467151087579e-01  4.0762910626362969e-01  4.0749337710732059e-01  4.0870628112666607e-01  4.0934053160744660e-01  4.0928964221823155e-01  4.0841452571244458e-01  4.0836571691410883e-01  4.0756532903743564e-01  4.0586666509832181e-01  4.0568816215608960e-01  4.0542162051595565e-01  4.0545484618413496e-01  4.0545909548496256e-01  4.6078428141665961e-01  4.6559358965063746e-01  4.5923832013956822e-01  4.5800864786212320e-01  4.5994124535297276e-01  4.6307558364709528e-01  4.6422197869230397e-01  4.6174456448795398e-01  4.5993789991771356e-01  4.6247995610592318e-01  4.6872272186772074e-01  4.6802572219713734e-01  4.5494109507380354e-01  4.6618675688337868e-01  4.6668265715722446e-01  4.6160661537694436e-01  4.6584703161434399e-01  4.6456811583175089e-01  4.6320074957198903e-01  4.6516977697167794e-01  4.6582298521607374e-01  4.6388722566642748e-01  4.6021552647747982e-01  4.6010147611769503e-01  4.6037265494328594e-01  4.6137590356699104e-01  4.6006760989352408e-01  4.5897681647465077e-01  4.5648332560110766e-01  4.6377399820563864e-01  5.1370529871166493e-01  5.1318561844126609e-01  5.5857937611351738e-01  5.5294228576163129e-01  6.0421396327937171e-01  6.0410529930250967e-01  5.9075906048403748e-01  6.3553618124928590e-01  6.1223432083249163e-01  6.5686917025409586e-01  6.1985666835394104e-01  6.7618032449064591e-01  6.2782764676563496e-01  6.6706759282262551e-01  6.1011285642962598e-01  6.4848665656263338e-01  6.7754042272118398e-01  6.4558704395492550e-01  5.9488234792551453e-01  6.0519651726739043e-01  6.6000630217079848e-01  6.0156855424569267e-01  6.5061931355670399e-01  5.9580746561035269e-01  6.2018319360403118e-01  6.7570852015127969e-01  6.3225473694758350e-01  6.8402094444564310e-01  6.3072501768505707e-01  6.7303344365328399e-01  6.1412972175558378e-01  6.4612937400793224e-01  5.9106013149868664e-01  5.9969329271042959e-01  6.5030398646329968e-01  5.9672237087143776e-01  6.3775894059026661e-01  5.8622632070705338e-01  6.0614110608983840e-01  6.6199845033931226e-01  6.2068168414918612e-01  6.7433634622238248e-01  6.2325516214392718e-01  5.9236791849402370e-01  6.0091190924920668e-01  6.8817018166446042e-01  5.9586447757308936e-01  5.8571216461152142e-01  5.8853225483871352e-01  5.7614420025948410e-01  6.1080600008887809e-01  5.6064347963539940e-01  5.3751994948702353e-01  5.6493363731623558e-01  5.3240448948765062e-01  5.5173423622019802e-01  5.6032410679876521e-01  5.5861165554627634e-01  5.7372724243524986e-01  5.3986696381086097e-01  5.5710026201561647e-01  5.5577438781030974e-01  5.6882312725297579e-01  5.5215812588848223e-01  6.9771653341751150e-01  5.8628588101919388e-01  5.4553020014626907e-01  5.3292072798704626e-01  5.5483302694838077e-01  5.3590771186860864e-01  5.2031885235955566e-01  5.3570555921056373e-01  5.0448062428879170e-01  5.3404286258876188e-01  5.5005773975221683e-01  5.1378736711618067e-01  5.3615823238048232e-01  5.4028202480099563e-01  6.9581556364442176e-01  5.2738484655920792e-01  5.4749913190549193e-01  5.4656312710251764e-01  5.1787489250231133e-01  5.7011677881177780e-01  5.3638578420508054e-01  5.2497238916030775e-01  5.6227473530416849e-01  5.2403365545379899e-01  5.0507206203632493e-01  5.0483446139939259e-01  5.0167617246118068e-01  5.0377140266712217e-01  5.9259764098614653e-01  5.5295283470495882e-01  5.1792333406949098e-01  6.4425450624905767e-01  7.1182755904586659e-01  4.9242489410289153e-01  7.1238519486283169e-01  6.8970498592087059e-01  5.2095553500106628e-01  4.9430719825401698e-01  6.9296574826110369e-01  6.6860019968918238e-01  5.6217633416051760e-01  4.6317326150140764e-01  4.6177578388541790e-01  5.1826632251854443e-01  4.6125812929496146e-01  4.6237289690099043e-01  4.9479131969532447e-01  5.0159019303486774e-01  4.6067267146640217e-01  4.6342549579631714e-01  4.6259247829261269e-01  4.5949933186564068e-01  4.7306786967590442e-01  4.6954499907752473e-01  4.6603427261707814e-01  5.1226404483256704e-01  5.1091816159097481e-01  5.0422499438944068e-01  5.0510216685514953e-01  5.0249634237554952e-01  5.5766210244718739e-01  4.6193366088046611e-01  5.1228981633144266e-01  4.6226207478389419e-01  5.0939937222944787e-01  4.6571844261740714e-01  4.6527860017956735e-01  4.6477467622581731e-01  5.0696905984416318e-01  5.3902944030360123e-01  4.6029744861627842e-01  5.1459219457713612e-01  4.6109207205651548e-01  5.1020462171934378e-01  5.1620338874554172e-01  4.6051599493010348e-01  4.6026626043166058e-01  4.6127750322877970e-01  5.0831182989328871e-01  7.1430657846447576e-01  4.5940526617893168e-01  7.1148228925611723e-01  4.6037296461290100e-01  5.0397902112148774e-01  4.5348229693318320e-01  4.5701919492902687e-01  4.6356447829588027e-01  5.0248282192078797e-01  5.5052425808855165e-01  6.9415729080994026e-01  7.1696866567164252e-01  5.0771735280334929e-01  4.5731435128015657e-01  4.5332485318711158e-01  5.0462472957968785e-01  4.5838352646857700e-01  6.8121463601056154e-01  5.4339695519308850e-01  5.3775104200413515e-01  5.4453940001718426e-01  4.5200281416149551e-01  5.0893503640929583e-01  5.0703675982768426e-01  4.9961214705846563e-01  5.0456330096640989e-01  5.0170743563343523e-01  5.7269640477466988e-01  5.1069386487284452e-01  5.4708308471876810e-01  5.0895223514209076e-01  5.0411465101882036e-01  5.0223803589234639e-01  5.4543633230051403e-01  5.1353460192126199e-01  5.0320252894978956e-01  4.9937170794680513e-01  5.0394435029915530e-01  5.4987726767623979e-01  7.1916291773430807e-01  4.9611332889363591e-01  7.1567850315198633e-01  5.5614812388151802e-01  4.4844900233857515e-01  5.5257029814887526e-01  4.4762406571513286e-01  5.7718345497435619e-01  5.6863036814371881e-01  5.8738868767662955e-01  5.3309950822306484e-01  5.0344300973175116e-01  5.7128896583516742e-01  5.7901925830865864e-01  5.8187264281370321e-01  4.9773924681221560e-01  5.6054333632697362e-01  5.4548361501282028e-01  5.3554996073806882e-01  5.0265948420759499e-01  4.4817620770112038e-01  5.4188192071473351e-01  5.6542768595682269e-01  4.9497187402703596e-01  4.9674270386893155e-01  4.9733493871831302e-01  5.5927733274645386e-01  4.9541376639362106e-01  5.7193872613889529e-01  5.4501391409466970e-01  5.6484271450289048e-01  4.9991777852654273e-01  5.6586424788880496e-01  5.7441425557291581e-01  5.3872134871263944e-01  5.6721090722877621e-01  4.9856187813489433e-01  5.7655489453614572e-01  5.6908639915073822e-01  6.0889985864339780e-01  5.0609512233707998e-01  3.5654634001622926e-01  3.5596040239324539e-01  3.5378030211107925e-01  3.5440559521584092e-01  3.5112580962614953e-01  3.5898480244393954e-01  3.4729604791448387e-01  3.5264308021195101e-01  3.5349821622033634e-01  3.5862274932876276e-01  3.4563153571076299e-01  3.4834551116663920e-01  3.5033808011482376e-01  3.5103966266346748e-01  3.4721314466132719e-01  3.4684197888093443e-01  3.4945839170917259e-01  1.9254720130600457e-02  3.5431426784999770e-01  2.0374411258797905e-02  1.9783996837391658e-02  2.0855157202727272e-02  2.0392826741467165e-02  2.0312212573945047e-02  3.4631451190958851e-01  2.0330824857845552e-02  3.4742433213393953e-01  3.5174863749802748e-01  1.9916837545175523e-02  3.4675544400753877e-01  3.5762991818274603e-01  3.4596095466785998e-01  3.5073406223008530e-01  4.4959700942207310e-02  4.3506489504992321e-02  3.8804221541613088e-02  4.3235857503569258e-02  4.8761046161878485e-02  5.0148589692840688e-02  4.7106138053574886e-02  4.2568649116532888e-02  5.3008019564770137e-02  4.6804888480325449e-02  4.9314650503198235e-02  5.3296946701069062e-02  5.7523234091120543e-03  6.7225793083111858e-03  5.8138051171258871e-03  5.0664481857464689e-03  4.7109119206314668e-03  4.7890224527628866e-03  4.7638143588708218e-03  6.7522730889903520e-03  3.4580085031238089e-01  2.9752881019107436e-01  2.9488735127809845e-01  2.5199212942536392e-01  2.5223242064389739e-01  2.4670706697046510e-01  2.0837292326245613e-01  2.1410028751333959e-01  1.6363680427198729e-01  1.6048844136143034e-01  2.0420926349344168e-01  1.5430284974736413e-01  2.0040771987945261e-01  1.4549252172308852e-01  1.7908242081141248e-01  1.3356505164306981e-01  1.6123154782448099e-01  1.1101348656922626e-01  1.3898258617256626e-01  9.6923723232519313e-02  1.1613531673936936e-01  1.6182441373740050e-01  1.3363295266074179e-01  1.8078471978775518e-01  1.4703338040227906e-01  7.7962124716178249e-02  2.0236646783618334e-01  1.5781948098171353e-01  1.1351476007689956e-01  1.0313467015798373e-01  2.0653085985797603e-01  1.6264116749828250e-01  2.1779073048944081e-01  1.6454180820939221e-01  2.1865459325599670e-01  1.6131294600402440e-01  2.0466879802764229e-01  2.1300180818800293e-01  6.2238735606867206e-02  4.6778801323602313e-02  1.6856447388034274e-01  5.8670188321407545e-02  2.0935638658812539e-01  1.1941799465532452e-01  1.5456960065476777e-01  2.0149361723124229e-01  1.2069227445512042e-01  1.4353782314333968e-01  1.7932409909008332e-01  1.2481123697093101e-01  1.5578458123718736e-01  2.1016054588203101e-01  1.9810921909568566e-01  1.3401701616409073e-01  1.6732325906347048e-01  2.2364722072248608e-01  1.9633007681273351e-01  1.4256233356838907e-01  1.6116386070758276e-01  1.1683781704329564e-01  1.3310965808070005e-01  1.8601917770054369e-01  1.4756424115081801e-01  1.9861650918699900e-01  1.6365423162360904e-01  1.1674243300870642e-01  1.2075368649412799e-01  1.6021505805869435e-01  1.2236365252326040e-01  1.5929865772179158e-01  8.3894033095337467e-02  1.1868501298827785e-01  1.6121078431622826e-01  1.0955710437756713e-01  1.4182422264313632e-01  1.9936594571835806e-01  9.1120588014473786e-02  2.6245313281963267e-01  9.4964461689072147e-02  1.2301467532233372e-01  1.7454080162845984e-01  1.5223639854776283e-01  2.1505326955816009e-01  1.8254351959315851e-01  1.2745294884303315e-01  1.5314446807798704e-01  2.0945416016256652e-01  1.8526239368980738e-01  7.4653160847308803e-02  9.3851359593392428e-02  2.3110664892853225e-01  7.9608234909213801e-02  2.5049301830197196e-01  2.5134431013320852e-01  2.3664430349608889e-01  1.9720751133814410e-01  2.5094536547358226e-01  2.1985989719472812e-01  1.5945343720111133e-01  1.7277880911958335e-01  2.2410154272745611e-01  1.8119065982659444e-01  2.3018890232875566e-01  1.9287912208414962e-01  1.4280563905013788e-01  1.4614304643355580e-01  1.8677517639704402e-01  1.4559268021153465e-01  1.8372756842764323e-01  1.4132039332743787e-01  1.7774116465833942e-01  1.3320697953239241e-01  1.6527098555873826e-01  1.2049922923285700e-01  1.4806450008222630e-01  9.3424561434494735e-02  8.1721223523687991e-02  1.0103136791080537e-01  6.0361211612508694e-02  1.9847369863100081e-01  1.7790847750443903e-01  1.2829580207666519e-01  1.5998698630605973e-01  1.0692820686974218e-01  2.2200905227861983e-01  1.2483808011686652e-01  1.7512557689789771e-01  1.4054063044342491e-01  1.9377207983231284e-01  1.5384825836865376e-01  2.3143643163943936e-01  7.0460170843626546e-02  2.1515732435715806e-01  1.6425907136491197e-01  4.9709090195696616e-02  2.1870058431594600e-01  1.7833568033046210e-01  2.2116925411860835e-01  1.7089186268083714e-01  2.2000537723853247e-01  1.6261666300007790e-01  2.0531282862964328e-01  1.5401033280096318e-01  1.9856045985913626e-01  1.4209723578125608e-01  1.7244313413523724e-01  1.2365641772789979e-01  1.5181858850142615e-01  1.0622819307386509e-01  1.2919730316322708e-01  1.7802774553077863e-01  1.5065381241865702e-01  1.0607274949047078e-01  1.2290154276420680e-01  8.3240381523011511e-02  9.5585534686721527e-02  1.3655179569528997e-01  1.0455910895052142e-01  1.4577165735865771e-01  1.1005708224496419e-01  1.5034976965452287e-01  1.7903688212600655e-01  6.1432825132904934e-02  1.0801654392608644e-01  1.5041876036485088e-01  1.9657365910826519e-01  2.0064006571482129e-01  1.4711799406223988e-01  1.8733759958316079e-01  1.3800554655873012e-01  1.7830480689208331e-01  1.2660131638629823e-01  2.0340777008867378e-01  5.0973440303593825e-02  2.3195328474511653e-01  7.6782786993719640e-02  3.4289092678060788e-02  2.2491137467303332e-01  3.3756526593912331e-02  8.0696743182531200e-02  4.2023470995530193e-02  1.2261743784359615e-01  2.3378621851345768e-01  2.3851822913172088e-01  2.5014102223661977e-01  7.7093790911339541e-02  1.1274378352626491e-01  1.1835691151306461e-01  2.5100665615391848e-01  8.6506968702232193e-02  2.8284419012469586e-01  2.5638647140366483e-01  2.8384498133982861e-01  2.6157049574227859e-01  2.3372098054964191e-01  2.4591031019137724e-01  2.4339257895896252e-01  7.1424047804423407e-02  2.5694115267453260e-01  1.2624690887184642e-01  2.7779618612796048e-01  3.0375250323368497e-01  2.7033771489949132e-01  1.7456542640541683e-01  3.4770750101526277e-02  2.1537928610430437e-02  2.5081005985955002e-01  2.8181194256912301e-01  2.6275907615301519e-01  1.1767940051256399e-01  1.1529388219631370e-01  2.9804464350158277e-01  2.6315482645217692e-01  2.6023671787903024e-01  2.6243091031005211e-01  2.6639109141569312e-01  2.6732230842267823e-01  2.8397579114317062e-01  2.5319562087000907e-01  2.7827172272076195e-01  3.1262916205539526e-01  2.7122893421649630e-01  2.7668360027170086e-01  2.6003568922692560e-01  7.7660232360914891e-02  2.3645455173376503e-01  2.5487659199600987e-01  2.8443960623593856e-01  3.0696176926286067e-01  2.8408281084272796e-01  2.4730420699373901e-01  9.8951813709240860e-02  3.1134650525417029e-01  2.7669635784106539e-01  9.6269635050625746e-02  1.0633625522557646e-01  7.6734068658099577e-02  2.5944354325450895e-02  4.7105266675601241e-02  5.7005424111096582e-02  6.7169039469537881e-02  4.6382496025753166e-02  2.9351307550415640e-01  2.8641235323690106e-01  2.8810503563536105e-01  2.9300350976766804e-01  2.5043522861594186e-01  2.9080495882386798e-01  2.6022575905484041e-01  3.0491015577315328e-01  2.4774037307687918e-01  2.8171097194724881e-01  2.2067350204273967e-01  2.7435815533841307e-01  3.5527843144305360e-01  3.1805531273628235e-01  3.5448124399256181e-01  2.4211098395818982e-02  3.4785470426668452e-01  2.9962777560779047e-01  2.9793926808376381e-01  2.5316834792546866e-01  9.2872840564763789e-02  3.4342385984812540e-01  2.9195311715181010e-01  3.2904873899599663e-01  2.7619453514188158e-01  7.9093592311157687e-02  2.9481529150634289e-01  2.2496129267002687e-01  2.8613134165925014e-01  3.4359751776207803e-01  2.9855468982871930e-01  2.9667655486512839e-01  3.4757057454679663e-01  3.4468580249851577e-01  3.0013569800321022e-01  2.9053333486039856e-01  3.4435885854450315e-01  2.5918879491647651e-01  3.0140547939419626e-01  2.9571002004223262e-01  3.4328086312112327e-01  2.9059035834995012e-01  3