<?xml version="1.0"?>
<VTKFile type="UnstructuredGrid"  version="0.1"  >
<UnstructuredGrid>
<Piece  NumberOfPoints="1183" NumberOfCells="2268">
<Points>
<DataArray  type="Float64"  NumberOfComponents="3"  format="ascii">0 0 0  0 1 0  1 1 0  1 0 0  1.1 -0.1 0  -0.1 -0.1 0  1.1 1.1 0  -0.1 1.1 0  0.5 0.5 0  0.2781971659276381 0.5393866781328335 0  0 0.9499999999997918 0  0 0.8999999999995836 0  0 0.8499999999996529 0  0 0.7999999999999998 0  0 0.7500000000003466 0  0 0.7000000000006934 0  0 0.6500000000010401 0  0 0.6000000000013869 0  0 0.5500000000017335 0  0 0.5000000000020587 0  0 0.4500000000018723 0  0 0.4000000000016644 0  0 0.3500000000014564 0  0 0.3000000000012483 0  0 0.2500000000010403 0  0 0.2000000000008322 0  0 0.1500000000006241 0  0 0.100000000000416 0  0 0.05000000000020799 0  0.04999999999989965 0 0  0.09999999999981467 0 0  0.1499999999997036 0 0  0.1999999999995579 0 0  0.2499999999994121 0 0  0.2999999999992664 0 0  0.3499999999991206 0 0  0.3999999999989749 0 0  0.4499999999988292 0 0  0.4999999999986943 0 0  0.5499999999988151 0 0  0.5999999999989468 0 0  0.6499999999990784 0 0  0.69999999999921 0 0  0.7499999999993417 0 0  0.7999999999994734 0 0  0.8499999999996051 0 0  0.8999999999997368 0 0  0.9499999999998684 0 0  1 0.04999999999989965 0  1 0.09999999999981467 0  1 0.1499999999997036 0  1 0.1999999999995579 0  1 0.2499999999994121 0  1 0.2999999999992664 0  1 0.3499999999991206 0  1 0.3999999999989749 0  1 0.4499999999988292 0  1 0.4999999999986943 0  1 0.5499999999988151 0  1 0.5999999999989468 0  1 0.6499999999990784 0  1 0.69999999999921 0  1 0.7499999999993417 0  1 0.7999999999994734 0  1 0.8499999999996051 0  1 0.8999999999997368 0  1 0.9499999999998684 0  0.9499999999997918 1 0  0.8999999999995836 1 0  0.8499999999996529 1 0  0.7999999999999998 1 0  0.7500000000003466 1 0  0.7000000000006934 1 0  0.6500000000010401 1 0  0.6000000000013869 1 0  0.5500000000017335 1 0  0.5000000000020587 1 0  0.4500000000018723 1 0  0.4000000000016644 1 0  0.3500000000014564 1 0  0.3000000000012483 1 0  0.2500000000010403 1 0  0.2000000000008322 1 0  0.1500000000006241 1 0  0.100000000000416 1 0  0.05000000000020799 1 0  -0.1 1.05000000000004 0  -0.1 1.000000000000079 0  -0.1 0.9500000000001624 0  -0.1 0.9000000000003032 0  -0.1 0.850000000000444 0  -0.1 0.8000000000005848 0  -0.1 0.7500000000007256 0  -0.1 0.7000000000008665 0  -0.1 0.6500000000010508 0  -0.1 0.6000000000012352 0  -0.1 0.5500000000014196 0  -0.1 0.500000000001539 0  -0.1 0.4500000000014195 0  -0.1 0.4000000000013 0  -0.1 0.3500000000011588 0  -0.1 0.3000000000010178 0  -0.1 0.2500000000008986 0  -0.1 0.2000000000007579 0  -0.1 0.1500000000006174 0  -0.1 0.1000000000005272 0  -0.1 0.05000000000040083 0  -0.1 2.671196597248127e-13 0  -0.1 -0.0499999999998666 0  -0.0500000000000906 -0.1 0  -1.730560139634463e-13 -0.1 0  0.04999999999975802 -0.1 0  0.09999999999961506 -0.1 0  0.1499999999994613 -0.1 0  0.199999999999302 -0.1 0  0.2499999999991446 -0.1 0  0.2999999999990088 -0.1 0  0.3499999999988296 -0.1 0  0.3999999999986936 -0.1 0  0.4499999999985143 -0.1 0  0.4999999999984002 -0.1 0  0.5499999999985247 -0.1 0  0.5999999999986493 -0.1 0  0.6499999999987955 -0.1 0  0.6999999999989417 -0.1 0  0.7499999999990659 -0.1 0  0.7999999999992116 -0.1 0  0.8499999999993573 -0.1 0  0.8999999999994526 -0.1 0  0.949999999999584 -0.1 0  0.9999999999997226 -0.1 0  1.049999999999861 -0.1 0  1.1 -0.0500000000000906 0  1.1 -1.730560139634463e-13 0  1.1 0.04999999999975802 0  1.1 0.09999999999961506 0  1.1 0.1499999999994613 0  1.1 0.199999999999302 0  1.1 0.2499999999991446 0  1.1 0.2999999999990088 0  1.1 0.3499999999988296 0  1.1 0.3999999999986936 0  1.1 0.4499999999985143 0  1.1 0.4999999999984002 0  1.1 0.5499999999985247 0  1.1 0.5999999999986493 0  1.1 0.6499999999987955 0  1.1 0.6999999999989417 0  1.1 0.7499999999990659 0  1.1 0.7999999999992116 0  1.1 0.8499999999993573 0  1.1 0.8999999999994526 0  1.1 0.949999999999584 0  1.1 0.9999999999997226 0  1.1 1.049999999999861 0  1.05000000000004 1.1 0  1.000000000000079 1.1 0  0.9500000000001624 1.1 0  0.9000000000003032 1.1 0  0.850000000000444 1.1 0  0.8000000000005848 1.1 0  0.7500000000007256 1.1 0  0.7000000000008665 1.1 0  0.6500000000010508 1.1 0  0.6000000000012352 1.1 0  0.5500000000014196 1.1 0  0.500000000001539 1.1 0  0.4500000000014195 1.1 0  0.4000000000013 1.1 0  0.3500000000011588 1.1 0  0.3000000000010178 1.1 0  0.2500000000008986 1.1 0  0.2000000000007579 1.1 0  0.1500000000006174 1.1 0  0.1000000000005272 1.1 0  0.05000000000040083 1.1 0  2.671196597248127e-13 1.1 0  -0.0499999999998666 1.1 0  0.2846923718740226 0.5634457087287871 0  0.2953602156825064 0.5860068139349631 0  0.3087607083313562 0.6070666358273511 0  0.3254018054025964 0.6256287659478322 0  0.3449119638056109 0.6411987867229703 0  0.3654944940604988 0.6553455098365385 0  0.3868432226674867 0.6682943367794038 0  0.4092268427287742 0.6793573582521116 0  0.4324756823371841 0.6884650694134298 0  0.4563948503388314 0.695628372786545 0  0.4808478551280056 0.7006720163942503 0  0.5055966305286745 0.7040234186858519 0  0.5305101851857535 0.7056087522783842 0  0.5553518178294279 0.7034381349118378 0  0.5794060782290369 0.6967984731521922 0  0.6023451853194116 0.6869625726002859 0  0.623784843204239 0.6741896471544407 0  0.6431908242891303 0.6584968967759082 0  0.6604882644558624 0.6405002114485041 0  0.6754823750396374 0.6205466258989223 0  0.6875888413571347 0.5987240140430131 0  0.6967700848527212 0.5755134632300444 0  0.7029704803508816 0.5513377961925625 0  0.7051688915823391 0.5264938553812232 0  0.703680216430362 0.5015753945386178 0  0.7001683665586802 0.4768503520167183 0  0.6946164396252867 0.4525099937679806 0  0.6868580677776714 0.4287765773714282 0  0.6774217405713455 0.4056563080423676 0  0.6663397792117676 0.3832806815908943 0  0.6533510200937801 0.3619583260829513 0  0.6389107570345051 0.3415813069503607 0  0.6229613177398872 0.3223810773124599 0  0.6040466684875102 0.3061427065208264 0  0.5826350597571129 0.2933139992445797 0  0.5597790227634298 0.2832928424366354 0  0.535564385875509 0.2773897901062014 0  0.5107010770974295 0.2785117982396568 0  0.486559382454602 0.2848326398922418 0  0.4630205986821898 0.2931797334335417 0  0.4403252482319583 0.3035659145259711 0  0.4188490689539725 0.3163031200078651 0  0.3982003189110772 0.3303481270773019 0  0.3786210003623009 0.3458447144872054 0  0.360341954503628 0.3628547789406389 0  0.3434701806888764 0.3812625590298417 0  0.3280939204137338 0.4009360299604012 0  0.3143290228473545 0.4217707385792423 0  0.3020640760643481 0.4435189999647828 0  0.2922356566767781 0.4664614811677045 0  0.2845002964203588 0.4902081953435266 0  0.278789895255896 0.5145023030063992 0  0.2997719134399329 0.5067703615376943 0  0.3478531396684438 0.6175861066717123 0  0.502583112903573 0.3042616598812251 0  0.6159895874012769 0.3448258104532201 0  0.4071222207414116 0.6555120232351834 0  0.6542548188413435 0.4041253650324542 0  0.6763130345113627 0.4694882826566231 0  0.6794060711620897 0.5605653502234292 0  0.6339678836828879 0.6369196690273532 0  0.5660089894535989 0.6810069670522829 0  0.4729892762253265 0.6769732712441101 0  0.4406156414503596 0.3285296223978096 0  0.3828808012237087 0.3694404823373204 0  0.3388303791189402 0.4215714962153352 0  0.5635760790057324 0.3074485508564822 0  0.3089789626178069 0.5658066916144137 0  0.3165211105911097 0.462071510215961 0  0.6632146359648228 0.5965381540543222 0  0.6007498261837828 0.6620440361755209 0  0.6830671021284515 0.5157674885896127 0  0.5187064804084915 0.6839217423163653 0  0.4194987191764825 0.3409899410395514 0  0.4406701171908575 0.3531967039836224 0  0.4626899822617863 0.3394780774248695 0  0.4639544688881445 0.3648748559393039 0  0.4399907985310607 0.3784011802631579 0  0.4635523437635823 0.3876776363920786 0  0.4430506892294326 0.4097809645215182 0  0.4872025920958662 0.3783443318492847 0  0.4866333373506216 0.4126451025980215 0  0.5210767315993952 0.3855260129748363 0  0.4559820546600383 0.4420342121119829 0  0.4231975323152915 0.4454632788236503 0  0.5178938703695681 0.3541384778493003 0  0.5504642481226272 0.3758658368209392 0  0.5638324991329016 0.4029279409167794 0  0.5465508795714218 0.3411895961682593 0  0.44674934752931 0.482526444339596 0  0.3870586778707218 0.4779585547880116 0  0.411121808316455 0.5193602170897266 0  0.3686079281944051 0.5163444675241844 0  0.3824642944537896 0.5576273771607543 0  0.4251454623752733 0.5588142580335269 0  0.4052845711584431 0.5892647679914826 0  0.4398988749445526 0.5985292457382355 0  0.4652851896644579 0.5656097435193488 0  0.4723198690657937 0.6027670917494345 0  0.5054117739313824 0.5780401607431992 0  0.52287251647042 0.6058381355521433 0  0.5490146649686209 0.5847388246924221 0  0.5703472599152735 0.6143132189490383 0  0.5871046492231539 0.5890134090963337 0  0.5816603868428916 0.5535856030436245 0  0.6108744100953696 0.5543041870445508 0  0.607188250578174 0.5195240806386331 0  0.5413029293580903 0.6432580144685384 0  0.5983668975952684 0.615177523946125 0  0.4521863578300666 0.6307992139747671 0  0.4908834046464447 0.6434894432487815 0  0.5887864619722489 0.3837118047721346 0  0.5890245337760873 0.4207972128073071 0  0.5715843597847776 0.4448796822651388 0  0.6111623381017941 0.3948605753837193 0  0.5795993963441274 0.3562511220657307 0  0.5685509130353512 0.5111934464599596 0  0.603768427627511 0.457572389379552 0  0.6248897477176972 0.4410006137872923 0  0.632369401346946 0.4658788851206454 0  0.6488879459757038 0.4441890736649551 0  0.4155252417784403 0.3906254463797014 0  0.4172201297305864 0.6167830425351465 0  0.389247090011602 0.6171795860820212 0  0.3767057947728113 0.5923306583697654 0  0.3547298264169089 0.5646293514953948 0  0.6425653335071166 0.5301045881512414 0  0.645349162393634 0.5594780911271217 0  0.6186791232712241 0.5956749128129495 0  0.5821737706701396 0.6410188177024626 0  0.3524756996715498 0.4804899329850359 0  0.3722733529995629 0.4471816817154707 0
[...]
<PointData  Scalars="u"> 
<DataArray  type="Float64"  Name="u"  format="ascii">0.0000000000000000e+00  0.0000000000000000e+00  0.0000000000000000e+00  0.0000000000000000e+00  0.0000000000000000e+00  0.0000000000000000e+00  0.0000000000000000e+00  0.0000000000000000e+00  5.4033412900574751e-01  2.8991000892370350e-01  0.0000000000000000e+00  0.0000000000000000e+00  0.0000000000000000e+00  0.0000000000000000e+00  0.0000000000000000e+00  0.0000000000000000e+00  0.0000000000000000e+00  0.0000000000000000e+00  0.0000000000000000e+00  0.0000000000000000e+00  0.0000000000000000e+00  0.0000000000000000e+00  0.0000000000000000e+00  0.0000000000000000e+00  0.0000000000000000e+00  0.0000000000000000e+00  0.0000000000000000e+00  0.0000000000000000e+00  0.0000000000000000e+00  0.0000000000000000e+00  0.0000000000000000e+00  0.0000000000000000e+00  0.0000000000000000e+00  0.0000000000000000e+00  0.0000000000000000e+00  0.0000000000000000e+00  0.0000000000000000e+00  0.0000000000000000e+00  0.0000000000000000e+00  0.0000000000000000e+00  0.0000000000000000e+00  0.0000000000000000e+00  0.0000000000000000e+00  0.0000000000000000e+00  0.0000000000000000e+00  0.0000000000000000e+00  0.0000000000000000e+00  0.0000000000000000e+00  0.0000000000000000e+00  0.0000000000000000e+00  0.0000000000000000e+00  0.0000000000000000e+00  0.0000000000000000e+00  0.0000000000000000e+00  0.0000000000000000e+00  0.0000000000000000e+00  0.0000000000000000e+00  0.0000000000000000e+00  0.0000000000000000e+00  0.0000000000000000e+00  0.0000000000000000e+00  0.0000000000000000e+00  0.0000000000000000e+00  0.0000000000000000e+00  0.0000000000000000e+00  0.0000000000000000e+00  0.0000000000000000e+00  0.0000000000000000e+00  0.0000000000000000e+00  0.0000000000000000e+00  0.0000000000000000e+00  0.0000000000000000e+00  0.0000000000000000e+00  0.0000000000000000e+00  0.0000000000000000e+00  0.0000000000000000e+00  0.0000000000000000e+00  0.0000000000000000e+00  0.0000000000000000e+00  0.0000000000000000e+00  0.0000000000000000e+00  0.0000000000000000e+00  0.0000000000000000e+00  0.0000000000000000e+00  0.0000000000000000e+00  0.0000000000000000e+00  0.0000000000000000e+00  0.0000000000000000e+00  0.0000000000000000e+00  0.0000000000000000e+00  0.0000000000000000e+00  0.0000000000000000e+00  0.0000000000000000e+00  0.0000000000000000e+00  0.0000000000000000e+00  0.0000000000000000e+00  0.0000000000000000e+00  0.0000000000000000e+00  0.0000000000000000e+00  0.0000000000000000e+00  0.0000000000000000e+00  0.0000000000000000e+00  0.0000000000000000e+00  0.0000000000000000e+00  0.0000000000000000e+00  0.0000000000000000e+00  0.0000000000000000e+00  0.0000000000000000e+00  0.0000000000000000e+00  0.0000000000000000e+00  0.0000000000000000e+00  0.0000000000000000e+00  0.0000000000000000e+00  0.0000000000000000e+00  0.0000000000000000e+00  0.0000000000000000e+00  0.0000000000000000e+00  0.0000000000000000e+00  0.0000000000000000e+00  0.0000000000000000e+00  0.0000000000000000e+00  0.0000000000000000e+00  0.0000000000000000e+00  0.0000000000000000e+00  0.0000000000000000e+00  0.0000000000000000e+00  0.0000000000000000e+00  0.0000000000000000e+00  0.0000000000000000e+00  0.0000000000000000e+00  0.0000000000000000e+00  0.0000000000000000e+00  0.0000000000000000e+00  0.0000000000000000e+00  0.0000000000000000e+00  0.0000000000000000e+00  0.0000000000000000e+00  0.0000000000000000e+00  0.0000000000000000e+00  0.0000000000000000e+00  0.0000000000000000e+00  0.0000000000000000e+00  0.0000000000000000e+00  0.0000000000000000e+00  0.0000000000000000e+00  0.0000000000000000e+00  0.0000000000000000e+00  0.0000000000000000e+00  0.0000000000000000e+00  0.0000000000000000e+00  0.0000000000000000e+00  0.0000000000000000e+00  0.0000000000000000e+00  0.0000000000000000e+00  0.0000000000000000e+00  0.0000000000000000e+00  0.0000000000000000e+00  0.0000000000000000e+00  0.0000000000000000e+00  0.0000000000000000e+00  0.0000000000000000e+00  0.0000000000000000e+00  0.0000000000000000e+00  0.0000000000000000e+00  0.0000000000000000e+00  0.0000000000000000e+00  0.0000000000000000e+00  0.0000000000000000e+00  0.0000000000000000e+00  0.0000000000000000e+00  0.0000000000000000e+00  0.0000000000000000e+00  0.0000000000000000e+00  0.0000000000000000e+00  0.0000000000000000e+00  0.0000000000000000e+00  0.0000000000000000e+00  0.0000000000000000e+00  2.9227535269758936e-01  2.9632051465750969e-01  3.0006271347089641e-01  3.0582758484155714e-01  3.1383829069035302e-01  3.1957226143061979e-01  3.2252767763102774e-01  3.2433282443120354e-01  3.2489016661891118e-01  3.2430951212219689e-01  3.2247085248309798e-01  3.1869919683899028e-01  3.1278037893554633e-01  3.0835614561407870e-01  3.0671920061428787e-01  3.0610474993033987e-01  3.0564318061253398e-01  3.0604226403409412e-01  3.0681711301089387e-01  3.0706740425813001e-01  3.0769753953870765e-01  3.0882231040539776e-01  3.1037156503816477e-01  3.1395405630624834e-01  3.1869842551635746e-01  3.2255133381311790e-01  3.2433071351559495e-01  3.2545837046799453e-01  3.2465636348075044e-01  3.2207845552748116e-01  3.1834045805687095e-01  3.1253138339882630e-01  3.0466261775976938e-01  2.9898526830884425e-01  2.9591251922449863e-01  2.9187911897359003e-01  2.8993442258879470e-01  2.9518457726370451e-01  3.0470034642779903e-01  3.1190643355551401e-01  3.1838127819527723e-01  3.2402147027686973e-01  3.2754973916086300e-01  3.2924822004049081e-01  3.2961578983567114e-01  3.2865612213674011e-01  3.2660933473669812e-01  3.2288100927481644e-01  3.1738298480553362e-01  3.1156078206877336e-01  3.0418515167937421e-01  2.9503441164686689e-01  3.4191852463013728e-01  3.5541719066529681e-01  3.5134218412181106e-01  3.5317950124314151e-01  3.6973664248128274e-01  3.6902397518502739e-01  3.7206668936198162e-01  3.5639964368701749e-01  3.5496522691313370e-01  3.5067150647718087e-01  3.7209905858208348e-01  3.6946497784115229e-01  3.7531684673038951e-01  3.7095314299792298e-01  3.4069602539241156e-01  3.4164775927272195e-01  3.6109920320561867e-01  3.5769182024012974e-01  3.5629118751515171e-01  3.6456023862440595e-01  3.6305302442956283e-01  3.7275327918539275e-01  4.0887258911612184e-01  4.0073189673688719e-01  4.3842982063624097e-01  4.4255960643249243e-01  4.6658301226203447e-01  4.7972654646405716e-01  4.6312954123847350e-01  5.0042140133593083e-01  4.7276895406351510e-01  5.1140760097732407e-01  4.9284130804756887e-01  4.3185559323472039e-01  4.4971841079302100e-01  4.7258571513603886e-01  4.0452577238421816e-01  5.2503035123009401e-01  4.7316754612914119e-01  4.9898680720032129e-01  4.5246446579277383e-01  4.5510694269104990e-01  4.9426266187889828e-01  4.5363627126379147e-01  4.7100776282359857e-01  5.1130787526230148e-01  4.8036302809162712e-01  5.0840025913705089e-01  4.7807102555751857e-01  4.9097889356085661e-01  4.4693690841648448e-01  4.5995005871135825e-01  4.9118278040957275e-01  4.6030161457074847e-01  4.7842065776192716e-01  4.2430642576669586e-01  4.2250812816626265e-01  4.3815698900288280e-01  4.3114322802962868e-01  4.3171324543969269e-01  4.6634051042827285e-01  4.9829287002305223e-01  4.2014910705737618e-01  4.0584091075153189e-01  5.1420083396220684e-01  4.7374782977939456e-01  4.3978808993901380e-01  4.4151457004596195e-01  4.0739677428099880e-01  4.3763048408511052e-01  4.3367653591960559e-01  4.0759865952797469e-01  4.2036435600587913e-01  4.1418576608733593e-01  4.2935968463339036e-01  4.1241994787772107e-01  4.2110783888191078e-01  4.0411906199808939e-01  4.2640304988878402e-01  4.3916925457951234e-01  4.0651395118152406e-01  4.3944676245724246e-01  3.9867340011953789e-01  4.2453918022058190e-01  3.8277448000703213e-01  3.9654493172768224e-01  3.6694372911479067e-01  3.8785829928255378e-01  4.1252194145588500e-01  4.0953003252921982e-01  4.4595852167798589e-01  4.0794313882378347e-01  4.1651182220654676e-01  5.1245368656295576e-01  5.2906945159494978e-01  3.6853671640864172e-01  4.0382323184641228e-01  3.6167527142752204e-01  3.7064115796731278e-01  3.6656919201262833e-01  3.6022466495689948e-01  3.9520087771073997e-01  3.7432930813572057e-01  4.1820158363944132e-01  3.6495986081837933e-01  3.7293843621227041e-01  4.0992184291855688e-01  3.7231760338538605e-01  3.7113040229162741e-01  4.0940296875301974e-01  3.6950491140806907e-01  4.6233542705671854e-01  3.5214607983724150e-01  3.9201791665175029e-01  5.2503537573825354e-01  3.9222752979159015e-01  3.8191616660514643e-01  3.7378957513333366e-01  3.6907838953431127e-01  3.5920555696838080e-01  3.9730007476048834e-01  3.7157669211916000e-01  3.9644865113028505e-01  3.4458850616632891e-01  3.4370999194945534e-01  3.8326715213720697e-01  3.9487836583475916e-01  3.4694284039875944e-01  3.6673869408466220e-01  3.7452660915996183e-01  3.9506884908906620e-01  3.5938589296333795e-01  3.8104226948641901e-01  3.7574397713875785e-01  3.3701021358219357e-01  3.7008730525565137e-01  4.7246001217412764e-01  3.4251173977654970e-01  3.5444531034387977e-01  3.3886888895951073e-01  3.3522773740546047e-01  5.3089607022790863e-01  3.9949509075797895e-01  4.4040343698743417e-01  4.0747029929967926e-01  4.0243610575812627e-01  4.2534453186136156e-01  4.5377946379235873e-01  4.1144173317768490e-01  3.8965758332753159e-01  3.9955588096645822e-01  3.4513424687196659e-01  4.2632023309619349e-01  4.0140486676429776e-01  3.3113849461658135e-01  3.4439727337967446e-01  4.0364631438210474e-01  3.7400389646872417e-01  4.0110505528716822e-01  5.0362426577370412e-01  4.0590186194024536e-01  4.2886555392354136e-01  3.8698133352298802e-01  3.9018080546395006e-01  3.9214066887352944e-01  4.0651981905827161e-01  3.3014690610234532e-01  4.3699692273161028e-01  3.7557977630847850e-01  5.3103500395214942e-01  4.6797754747935577e-01  4.3441076690462960e-01  4.6148221604964640e-01  5.2996844790101894e-01  3.7308844205652980e-01  4.3529404535588168e-01  4.6550682886880979e-01  4.3933557811603008e-01  4.4506648471279631e-01  4.0264686246788739e-01  3.3963198714924614e-01  4.1888653429456468e-01  4.3009090484311113e-01  4.4040277066069328e-01  4.0521746125084457e-01  4.3403236680313229e-01  4.4847061539864486e-01  4.5096235587319489e-01  4.2054207070307692e-01  4.3655002174623697e-01  4.4959602608385157e-01  2.6290458416547907e-01  2.8216826618846719e-01  2.6144856159394947e-01  2.6056763037973418e-01  2.7650579679032522e-01  2.4912957867998128e-01  2.7534014000344631e-01  2.7520545785452760e-01  2.5149189613152656e-01  2.6956377904561141e-01  2.4522502049666256e-01  2.4475899391531986e-01  2.6367964221081164e-01  2.6623993365091236e-01  2.6016445101050761e-01  1.7375701889130472e-03  2.6474076673622282e-01  2.7211712516394360e-01  2.7490187804817279e-01  2.1365271674362576e-03  2.4440123083576204e-03  2.6111145515061179e-01  1.6907776146779785e-03  1.8247389078629779e-03  1.9007135439025821e-03  2.4067251485418465e-03  2.5268334321329095e-01  6.5585780871306818e-03  1.5793726284579479e-02  1.5674615712571872e-02  1.4859798502583448e-02  1.4912193570939120e-02  1.4017661491965518e-02  1.5285258836489145e-02  1.9096964760065845e-02  1.5871440427435882e-02  2.1187534405059025e-02  1.8328114489302775e-02  2.1771942260089373e-02  2.0195015808702074e-02  -2.4456265090161684e-03  -5.2202308232053955e-03  -5.0070575990958949e-03  -4.9623163931404009e-03  -5.3033570386597940e-03  -4.8325663384570202e-03  -5.3948134671558687e-03  -4.7604915191589801e-03  -6.8139382861286783e-03  2.4685236801286284e-01  2.0780516084276296e-01  2.0619367223810472e-01  1.7436932212686895e-01  1.6941474743242899e-01  1.7533516026338797e-01  1.4337554011564579e-01  1.4353649599200458e-01  1.1191285222637273e-01  1.0993997289177934e-01  1.4143719504243987e-01  1.0587013898897410e-01  1.3405815739325147e-01  9.8526784492528288e-02  1.2297121923468268e-01  8.8566989757276157e-02  1.0929811733529987e-01  7.5853175786654015e-02  9.3061991472666028e-02  6.1878620799962265e-02  7.5189637704669118e-02  1.0944452028556331e-01  8.7427487701602857e-02  6.8438396934652132e-02  4.7175806991902582e-02  3.6183883495265266e-02  1.2241283037780000e-01  9.7589218913370177e-02  6.6114597178168921e-02  1.3171177451471369e-01  1.0462782903270006e-01  1.4642419903045997e-01  1.0845098044292700e-01  1.4223804395993001e-01  1.0955371055727350e-01  1.4062954524423277e-01  1.0545525513568979e-01  1.3188392655144873e-01  2.5176554966195065e-02  9.6381949680198004e-02  1.2180737219805726e-01  8.5904792119812334e-02  1.0799234929624707e-01  7.0884701515445250e-02  7.9420836879667694e-02  1.5085107186061764e-01  7.8894005552867505e-02  1.5865725169378758e-02  2.5573763725421816e-02  1.1298730709667622e-01  8.2582210010517090e-02  8.2011433757598992e-02  7.3048975221631812e-02  9.1504042912585973e-02  1.2940620853439455e-01  1.0871821280710812e-01  7.4946187819115759e-02  8.8126854223413806e-02  5.7804727810930857e-02  6.7910029013815654e-02  9.9845121212318810e-02  7.6066160445655187e-02  1.0883072477226607e-01  8.1615323633330281e-02  5.4033808910749069e-02  5.7133818925218509e-02  8.9445423773168636e-02  5.8529769400916767e-02  8.3316292247422680e-02  5.5076823440551058e-02  7.8702741710315854e-02  3.4729144613797613e-02  1.1139153830372149e-01  1.0409796574138593e-01  4.9379827487318458e-02  3.6176465764646004e-02  1.4332393960408316e-01  1.4831824178952016e-01  4.1496961825271829e-02  1.4640886919521615e-01  1.2995817228920090e-01  9.4263626377022555e-02  1.1660360763169181e-01  8.1365816062988747e-02  9.9983342159744582e-02  6.6382996169434466e-02  8.2275780437686893e-02  1.1732310049952352e-01  9.5880529817667454e-02  1.3976187807301341e-01  1.0847252672516570e-01  1.4848727735103801e-01  1.1771892491898378e-01  1.6184060416989032e-01  1.2392744441937663e-01  1.6106356295406152e-01  1.2504326941769370e-01  9.2664539575890242e-02  9.4340471903545914e-02  1.2310249942371097e-01  9.1191690169243333e-02  1.1763357545532464e-01  8.5016754208245782e-02  1.0924242666517425e-01  7.6164100629794146e-02  9.7593080455970940e-02  6.6069197502565069e-02  8.3108706444156147e-02  4.8737185774989623e-02  6.7424399068714433e-02  1.1756564812732025e-01  1.0012436268846957e-01  6.7433059181365704e-02  8.0414991654560231e-02  3.9872813304837482e-02  2.6806700140601374e-02  5.1068745788343486e-02  1.1620471667116861e-01  9.2270628608960903e-02  8.6682234226171953e-02  3.3207553048965478e-02  1.4970752764888950e-01  1.5184985916949256e-01  1.3435889584719390e-01  1.0169602241177039e-01  1.3866703821210835e-01  1.0659703747351983e-01  1.4601809188552478e-01  1.0682145909850527e-01  1.4142201533641877e-01  1.0310302637263867e-01  1.4201232183662402e-01  9.8375677424119387e-02  1.2698838691444261e-01  8.9180370518505650e-02  1.1014614312791919e-01  7.7364506531055949e-02  9.4426509464484956e-02  6.3908239434551456e-02  7.9217217249118593e-02  1.1863247498511846e-01  9.3559982837375780e-02  6.2213713357013638e-02  7.2831335013752177e-02  1.0669201601592068e-01  8.2285147108548909e-02  5.3553636431977122e-02  5.9630173406060451e-02  8.9116345759181606e-02  6.4287620041377960e-02  9.2737320855074704e-02  3.5642037404236791e-02  1.2308895351262780e-01  1.2585230740222292e-01  9.3635925312759868e-02  1.2506808339300218e-01  9.1775599600417881e-02  6.6028419616948261e-02  1.1996741203574350e-01  8.6372682437247342e-02  3.0304910831166584e-02  1.7263561615356873e-02  1.6064220335514046e-01  1.1510145526007638e-01  7.7489600301463860e-02  1.6079350024113812e-01  1.5598516725839029e-01  1.8413425621637378e-01  7.3405936059808372e-02  1.8185267838787902e-01  1.5251174183870342e-01  1.5183267001234456e-02  2.0767492353227057e-02  1.5736683864401757e-01  1.4880369492802731e-01  1.5377961396238643e-01  6.9122756077496558e-02  1.8170247910836579e-01  4.9817307744210004e-02  2.0109998211952432e-02  1.6216070114344069e-01  1.9849287840969068e-01  1.9089527624975133e-01  5.1013420766395354e-02  1.9634750443353474e-01  9.0633205462395342e-03  3.3879702299679612e-02  9.4576246587039191e-03  1.7170279816773906e-01  1.5326353310044227e-01  1.2734197494801794e-02  4.0646489255344838e-03  2.4354495893229029e-02  3.7932573083223758e-02  3.1747404727097757e-02  1.7118487299257142e-02  1.8720917757849936e-02  5.7014294673234187e-03  6.2756034880848211e-03  1.8451608639860037e-01  4.0585706631423329e-02  2.7962807851419139e-02  3.3298607790739898e-02  5.7025211071160473e-02  1.9035107823046679e-01  1.9994272468508590e-02  1.9872924531550532e-01  1.9861913374670759e-01  2.3663558271057272e-01  2.2166099738331374e-01  5.3577600966662225e-02  4.6838129449677503e-02  1.8056572051336162e-01  1.6164767317397599e-01  1.8466898787190772e-01  1.9788661191056980e-01  2.3407108907738083e-01  3.6417987443927498e-02  4.5839250076689514e-03  1.8504632699414686e-01  2.1935332421516474e-01  1.5310869386922421e-01  2.1308685115409695e-01  2.0976054923733986e-02  2.1239677459468486e-02  1.7024742444790580e-01  2.5639578423502857e-02  9.3283508361690512e-02  2.2698701674145241e-01  2.1797122085091772e-01  1.8467642431028503e-01  2.1100835489628128e-01  1.7587473825557934e-01  2.0236664994546699e-01  2.3983158459885751e-01  2.4598293854088416e-01  5.0111559482889211e-03  2.7943450518268069e-03  1.8900926035246163e-01  2.1183904177166296e-01  1.9361729557163457e-01  5.6863869243313353e-02  5.6299435686533887e-02  6.1029595078764536e-02  1.6730240966005838e-02  3.5315373078862469e-02  2.2106908312724806e-02  5.6920905165330146e-02  4.4621246277185847e-02  3.9354563421640169e-02  2.5138461134881076e-02  2.5258805042078247e-01  2.1958467188847947e-01  2.2526200168813595e-01  2.0989282295626885e-01  1.8876307257651978e-01  2.5576551023480526e-01  2.2004464385188724e-01  2.2300207483255818e-01  2.2770976227804121e-01  7.9231901572332075e-03  2.0507081811080710e-01  2.0641873630468119e-01  3.9784217793557522e-02  2.4332150970990482e-01  1.8589651364478228e-02  2.6796013697773302e-01  2.6603555012183860e-01  2.2497908216586074e-01  2.2341812222442714e-01  1.8462206913318929e-01  2.2371535782473090e-01  -1.7797065187432927e-03  2.5685197143340810e-01  2.4529006941114448e-01  2.3147925527804336e-01  1.9057585977232069e-01  2.1881313880825046e-01  2.4265871821068571e-01  1.6466447059699518e-01  1.4058199055111948e-02  1.7159863414877179e-02  1.8198058070972772e-01  1.6076369192482265e-01  2.2151565691250605e-01  2.2766979245929458e-01  2.1872217498540075e-01  2.4395369891918048e-01  1.9937056988463772e-01  2.7339247112385018e-01  1.9212679293792384e-01  1.6069605672328247e-01  1.5438285584140421e-01  1.9117679342637026e-01  2.5561344328237973e-01  2.2000235282733893e-01  1.8676394082569714e-01  2.2636573192097686e-01  2.6675687614708615e-01  2.2683287207719094e-01  2.2910857636978191e-01  1.9159084235639487e-01  1.5090604838956850e-01  2.7148029895672088e-01  2.3307967163504820e-01  1.4164780455268894e-01  2.7655561155642616e-01  2.3640214512202903e-01  2.3159690354325971e-01  2.3926469858324956e-01  2.0047807812653146e-01  1.9698439421626107e-01  2.7080230600076677e-01  2.3452456310641112e-01  2.2991536337155971e-01  1.9055124273131752e-01  2.0230488468293514e-01  1.9718857362036660e-01  2.7292828797506974e-01  2.3577494268879959e-01  2.3626227656492427e-01  1.9962407531654855e-01  2.2799458992431409e-01  1.9108989605449847e-01  1.9702037876475187e-01  2.6058338505498863e-01  2.2420168247942532e-01  2.7322932288216928e-01  1.2919938398044745e-01  2.5468122749941136e-02  1.7235042966999625e-01  1.6057016075902261e-01  2.3617260240551138e-01  2.5508783093273552e-01  2.6403906078958406e-01  1.6083571308568512e-01  1.9311735998014452e-02  3.5802591102451223e-02  1.5915926700683408e-01  2.0673380111049747e-02  4.3283459157444276e-02  4.5898530172719817e-02  2.3403802028988212e-02  4.0198236715778324e-02  4.1216130257731201e-02  3.8505820737175359e-02  1.1745190857996109e-01  2.1936964482646082e-01  1.1915026106588060e-01  1.3151798156873037e-01  1.8863984030014799e-01  1.8544962246062488e-02  3.5984371056138977e-02  3.1218131019088401e-02  5.9882816557932171e-02  1.1786641182322508e-02  7.6890399968766237e-03  4.9026913838936516e-02  4.0558523012517285e-02  4.5109178375193