<?xml version="1.0"?>
<VTKFile type="UnstructuredGrid"  version="0.1"  >
<UnstructuredGrid>
<Piece  NumberOfPoints="1251" NumberOfCells="2404">
<Points>
<DataArray  type="Float64"  NumberOfComponents="3"  format="ascii">0 0 0  0 1 0  1 1 0  1 0 0  1.1 -0.1 0  -0.1 -0.1 0  1.1 1.1 0  -0.1 1.1 0  0.5000743592116449 0.5001105766029914 0  0.2479063671153382 0.5436971706280199 0  0 0.9499999999997918 0  0 0.8999999999995836 0  0 0.8499999999996529 0  0 0.7999999999999998 0  0 0.7500000000003466 0  0 0.7000000000006934 0  0 0.6500000000010401 0  0 0.6000000000013869 0  0 0.5500000000017335 0  0 0.5000000000020587 0  0 0.4500000000018723 0  0 0.4000000000016644 0  0 0.3500000000014564 0  0 0.3000000000012483 0  0 0.2500000000010403 0  0 0.2000000000008322 0  0 0.1500000000006241 0  0 0.100000000000416 0  0 0.05000000000020799 0  0.04999999999989965 0 0  0.09999999999981467 0 0  0.1499999999997036 0 0  0.1999999999995579 0 0  0.2499999999994121 0 0  0.2999999999992664 0 0  0.3499999999991206 0 0  0.3999999999989749 0 0  0.4499999999988292 0 0  0.4999999999986943 0 0  0.5499999999988151 0 0  0.5999999999989468 0 0  0.6499999999990784 0 0  0.69999999999921 0 0  0.7499999999993417 0 0  0.7999999999994734 0 0  0.8499999999996051 0 0  0.8999999999997368 0 0  0.9499999999998684 0 0  1 0.04999999999989965 0  1 0.09999999999981467 0  1 0.1499999999997036 0  1 0.1999999999995579 0  1 0.2499999999994121 0  1 0.2999999999992664 0  1 0.3499999999991206 0  1 0.3999999999989749 0  1 0.4499999999988292 0  1 0.4999999999986943 0  1 0.5499999999988151 0  1 0.5999999999989468 0  1 0.6499999999990784 0  1 0.69999999999921 0  1 0.7499999999993417 0  1 0.7999999999994734 0  1 0.8499999999996051 0  1 0.8999999999997368 0  1 0.9499999999998684 0  0.9499999999997918 1 0  0.8999999999995836 1 0  0.8499999999996529 1 0  0.7999999999999998 1 0  0.7500000000003466 1 0  0.7000000000006934 1 0  0.6500000000010401 1 0  0.6000000000013869 1 0  0.5500000000017335 1 0  0.5000000000020587 1 0  0.4500000000018723 1 0  0.4000000000016644 1 0  0.3500000000014564 1 0  0.3000000000012483 1 0  0.2500000000010403 1 0  0.2000000000008322 1 0  0.1500000000006241 1 0  0.100000000000416 1 0  0.05000000000020799 1 0  -0.1 1.05000000000004 0  -0.1 1.000000000000079 0  -0.1 0.9500000000001624 0  -0.1 0.9000000000003032 0  -0.1 0.850000000000444 0  -0.1 0.8000000000005848 0  -0.1 0.7500000000007256 0  -0.1 0.7000000000008665 0  -0.1 0.6500000000010508 0  -0.1 0.6000000000012352 0  -0.1 0.5500000000014196 0  -0.1 0.500000000001539 0  -0.1 0.4500000000014195 0  -0.1 0.4000000000013 0  -0.1 0.3500000000011588 0  -0.1 0.3000000000010178 0  -0.1 0.2500000000008986 0  -0.1 0.2000000000007579 0  -0.1 0.1500000000006174 0  -0.1 0.1000000000005272 0  -0.1 0.05000000000040083 0  -0.1 2.671196597248127e-13 0  -0.1 -0.0499999999998666 0  -0.0500000000000906 -0.1 0  -1.730560139634463e-13 -0.1 0  0.04999999999975802 -0.1 0  0.09999999999961506 -0.1 0  0.1499999999994613 -0.1 0  0.199999999999302 -0.1 0  0.2499999999991446 -0.1 0  0.2999999999990088 -0.1 0  0.3499999999988296 -0.1 0  0.3999999999986936 -0.1 0  0.4499999999985143 -0.1 0  0.4999999999984002 -0.1 0  0.5499999999985247 -0.1 0  0.5999999999986493 -0.1 0  0.6499999999987955 -0.1 0  0.6999999999989417 -0.1 0  0.7499999999990659 -0.1 0  0.7999999999992116 -0.1 0  0.8499999999993573 -0.1 0  0.8999999999994526 -0.1 0  0.949999999999584 -0.1 0  0.9999999999997226 -0.1 0  1.049999999999861 -0.1 0  1.1 -0.0500000000000906 0  1.1 -1.730560139634463e-13 0  1.1 0.04999999999975802 0  1.1 0.09999999999961506 0  1.1 0.1499999999994613 0  1.1 0.199999999999302 0  1.1 0.2499999999991446 0  1.1 0.2999999999990088 0  1.1 0.3499999999988296 0  1.1 0.3999999999986936 0  1.1 0.4499999999985143 0  1.1 0.4999999999984002 0  1.1 0.5499999999985247 0  1.1 0.5999999999986493 0  1.1 0.6499999999987955 0  1.1 0.6999999999989417 0  1.1 0.7499999999990659 0  1.1 0.7999999999992116 0  1.1 0.8499999999993573 0  1.1 0.8999999999994526 0  1.1 0.949999999999584 0  1.1 0.9999999999997226 0  1.1 1.049999999999861 0  1.05000000000004 1.1 0  1.000000000000079 1.1 0  0.9500000000001624 1.1 0  0.9000000000003032 1.1 0  0.850000000000444 1.1 0  0.8000000000005848 1.1 0  0.7500000000007256 1.1 0  0.7000000000008665 1.1 0  0.6500000000010508 1.1 0  0.6000000000012352 1.1 0  0.5500000000014196 1.1 0  0.500000000001539 1.1 0  0.4500000000014195 1.1 0  0.4000000000013 1.1 0  0.3500000000011588 1.1 0  0.3000000000010178 1.1 0  0.2500000000008986 1.1 0  0.2000000000007579 1.1 0  0.1500000000006174 1.1 0  0.1000000000005272 1.1 0  0.05000000000040083 1.1 0  2.671196597248127e-13 1.1 0  -0.0499999999998666 1.1 0  0.2533676036181186 0.5679419835971925 0  0.2619648207743655 0.5912587842666197 0  0.2734091018427678 0.6133273299566501 0  0.2873157815271986 0.6339426268996372 0  0.3032828353523369 0.6530166951528212 0  0.3209681923384973 0.6705200413860704 0  0.3402180399304414 0.6862919640009137 0  0.360723448299185 0.7004051609948105 0  0.3822707321207099 0.7128785074673728 0  0.4047530750101394 0.7235797678249769 0  0.4280424044829582 0.7323796701898218 0  0.4519797854998552 0.7392180846234229 0  0.4763902634121887 0.7440963504507647 0  0.5011281105436393 0.7468154125228521 0  0.5260099593431502 0.7470627895929636 0  0.550781414269635 0.7447564477853488 0  0.575159740864699 0.7398286980694768 0  0.5988351036651186 0.7322143489826102 0  0.6214737396152732 0.7219235738741429 0  0.6428604958008852 0.7092369036178936 0  0.6628082606353599 0.6943911562358582 0  0.6810809676804214 0.6775278962809826 0  0.6974710185736761 0.6588304591931384 0  0.7118076387805289 0.6385134761827024 0  0.7239474745546878 0.6168114945444343 0  0.7337151715915479 0.5939421436014041 0  0.7408689255960895 0.5701255760854236 0  0.7453921890188944 0.5456671722227193 0  0.7473489680543406 0.5208661880511092 0  0.7467344780646396 0.4959948987256787 0  0.7435443747936542 0.4713141044928415 0  0.7382072292090729 0.4470024202352378 0  0.7308686622124366 0.4232137611752163 0  0.7216089530149349 0.4001024836841517 0  0.7105190794755732 0.3778108260306338 0  0.697709478855024 0.3564635246002094 0  0.6832846838713255 0.3361776296323813 0  0.6672083940812994 0.3171816931062913 0  0.6493612286746235 0.2998432128845692 0  0.6299096113717519 0.2843448323279138 0  0.6089769270110659 0.270923299477669 0  0.5866682614412237 0.2599603932465321 0  0.5631555043764113 0.2519185290565301 0  0.5387767942347774 0.2470977414205956 0  0.5139902823651854 0.2453072850864217 0  0.4891673823533031 0.246520624215364 0  0.4646653310960397 0.2506960961797342 0  0.440727739433267 0.2574268126381049 0  0.4174794670359731 0.2662699515168825 0  0.3950545912097881 0.2770382724199131 0  0.3736976608133378 0.2898043312875698 0  0.3534832100211853 0.3043227677437211 0  0.3345433534911411 0.3204747077056752 0  0.3170493284373969 0.3381787986348754 0  0.3011595644217563 0.3573370507165295 0  0.2870017941392633 0.3778040073233987 0  0.2746185880394939 0.3993860282962549 0  0.2642622458655359 0.4220071984821421 0  0.2559199924622426 0.4454367299882001 0  0.2497670943139029 0.4695276793487223 0  0.2461630246567105 0.4941195709922132 0  0.2454939884378916 0.5189623731056122 0  0.546805625382586 0.2706009745831012 0  0.6255060052129157 0.3092231582205353 0  0.4580776779842931 0.2731278795248259 0  0.2702348972372325 0.5505766965248753 0  0.3122742370112134 0.6327484912390146 0  0.2737026518416162 0.4628504774629311 0  0.6573475838625941 0.6701437093705318 0  0.7099393803628008 0.5968357920477551 0  0.7270515916300814 0.5096284226775321 0  0.5813290023021523 0.7155675928822283 0  0.4901866456519886 0.7222634008831846 0  0.3122522207224947 0.3798527293408957 0  0.3732139137344129 0.3107716436884059 0  0.4240314002146671 0.7077939694917178 0  0.6847937096425994 0.376950588841425 0  0.715396286488275 0.4410448242426713 0  0.3625506200945513 0.6755796812204806 0  0.3401938120390741 0.3435486724855661 0  0.4155061540525377 0.290091634937258 0  0.2890378401060931 0.4196773153420534 0  0.6587643915832354 0.3405839423841909 0  0.6874273698634324 0.6359212523177583 0  0.5349246478802094 0.7259298295118716 0  0.7232104691392294 0.5544826418798799 0  0.6223099231177508 0.6980608270188359 0  0.5026494643470399 0.2673973687881873 0  0.2668136411236002 0.5059087583006852 0  0.285711507162929 0.5929489465222764 0  0.5923114027325228 0.2841521757595892 0  0.3827452833259414 0.6894121760253386 0  0.3858263795005429 0.6653589316054491 0  0.3646939228739367 0.6506566444981051 0  0.3889503186931003 0.64045738528422 0  0.365507218870232 0.624866767863697 0  0.394846355618581 0.6121009036124342 0  0.4199294344602207 0.6298585545911056 0  0.3688972088894859 0.597308274327141 0  0.3947619091615424 0.5821574692793884 0  0.3618510319798822 0.5634733865795183 0  0.4299652630946048 0.5937264652500979 0  0.4540447510519275 0.6353284551664483 0  0.4794727337981753 0.5974103808780282 0  0.4901907226203592 0.6376543487168126 0  0.5215894473424669 0.6077365838762366 0  0.5521878392848339 0.6434107453269129 0  0.5672076709637965 0.6067391430111551 0  0.4108152074811733 0.5467964160098425 0  0.3730758450337068 0.5200424629140896 0  0.5885290856735017 0.6369995971293221 0  0.6111037648503405 0.6114607844230312 0  0.5914535045858154 0.5727394225510383 0  0.6384547945102662 0.5786754621951753 0  0.6167026383200308 0.5406509834772951 0  0.6547532972953684 0.5448035475736941 0  0.6440064149132579 0.5059146967819008 0  0.600482671165961 0.5026358310640463 0  0.6306486966476446 0.4669320539950185 0  0.5840843298003411 0.4631957781528367 0  0.6159261009773381 0.4287746624371834 0  0.5690830006133978 0.4230007627948358 0  0.6000479315197756 0.3899486368304055 0  0.5532857104321027 0.3841292199553808 0  0.5805224158335305 0.3565025348142985 0  0.543798834910152 0.3452970803900894 0  0.5164837327167756 0.3765744141049191 0  0.5013949533266262 0.337786613977303 0  0.4802779656753333 0.3680490080286878 0  0.4660020051903001 0.3367219747301201 0  0.4408056470803459 0.3582272862867579 0  0.455961
[...]
<PointData  Scalars="u"> 
<DataArray  type="Float64"  Name="u"  format="ascii">0.0000000000000000e+00  0.0000000000000000e+00  0.0000000000000000e+00  0.0000000000000000e+00  0.0000000000000000e+00  0.0000000000000000e+00  0.0000000000000000e+00  0.0000000000000000e+00  7.2908307189108146e-01  3.9447302806464257e-01  0.0000000000000000e+00  0.0000000000000000e+00  0.0000000000000000e+00  0.0000000000000000e+00  0.0000000000000000e+00  0.0000000000000000e+00  0.0000000000000000e+00  0.0000000000000000e+00  0.0000000000000000e+00  0.0000000000000000e+00  0.0000000000000000e+00  0.0000000000000000e+00  0.0000000000000000e+00  0.0000000000000000e+00  0.0000000000000000e+00  0.0000000000000000e+00  0.0000000000000000e+00  0.0000000000000000e+00  0.0000000000000000e+00  0.0000000000000000e+00  0.0000000000000000e+00  0.0000000000000000e+00  0.0000000000000000e+00  0.0000000000000000e+00  0.0000000000000000e+00  0.0000000000000000e+00  0.0000000000000000e+00  0.0000000000000000e+00  0.0000000000000000e+00  0.0000000000000000e+00  0.0000000000000000e+00  0.0000000000000000e+00  0.0000000000000000e+00  0.0000000000000000e+00  0.0000000000000000e+00  0.0000000000000000e+00  0.0000000000000000e+00  0.0000000000000000e+00  0.0000000000000000e+00  0.0000000000000000e+00  0.0000000000000000e+00  0.0000000000000000e+00  0.0000000000000000e+00  0.0000000000000000e+00  0.0000000000000000e+00  0.0000000000000000e+00  0.0000000000000000e+00  0.0000000000000000e+00  0.0000000000000000e+00  0.0000000000000000e+00  0.0000000000000000e+00  0.0000000000000000e+00  0.0000000000000000e+00  0.0000000000000000e+00  0.0000000000000000e+00  0.0000000000000000e+00  0.0000000000000000e+00  0.0000000000000000e+00  0.0000000000000000e+00  0.0000000000000000e+00  0.0000000000000000e+00  0.0000000000000000e+00  0.0000000000000000e+00  0.0000000000000000e+00  0.0000000000000000e+00  0.0000000000000000e+00  0.0000000000000000e+00  0.0000000000000000e+00  0.0000000000000000e+00  0.0000000000000000e+00  0.0000000000000000e+00  0.0000000000000000e+00  0.0000000000000000e+00  0.0000000000000000e+00  0.0000000000000000e+00  0.0000000000000000e+00  0.0000000000000000e+00  0.0000000000000000e+00  0.0000000000000000e+00  0.0000000000000000e+00  0.0000000000000000e+00  0.0000000000000000e+00  0.0000000000000000e+00  0.0000000000000000e+00  0.0000000000000000e+00  0.0000000000000000e+00  0.0000000000000000e+00  0.0000000000000000e+00  0.0000000000000000e+00  0.0000000000000000e+00  0.0000000000000000e+00  0.0000000000000000e+00  0.0000000000000000e+00  0.0000000000000000e+00  0.0000000000000000e+00  0.0000000000000000e+00  0.0000000000000000e+00  0.0000000000000000e+00  0.0000000000000000e+00  0.0000000000000000e+00  0.0000000000000000e+00  0.0000000000000000e+00  0.0000000000000000e+00  0.0000000000000000e+00  0.0000000000000000e+00  0.0000000000000000e+00  0.0000000000000000e+00  0.0000000000000000e+00  0.0000000000000000e+00  0.0000000000000000e+00  0.0000000000000000e+00  0.0000000000000000e+00  0.0000000000000000e+00  0.0000000000000000e+00  0.0000000000000000e+00  0.0000000000000000e+00  0.0000000000000000e+00  0.0000000000000000e+00  0.0000000000000000e+00  0.0000000000000000e+00  0.0000000000000000e+00  0.0000000000000000e+00  0.0000000000000000e+00  0.0000000000000000e+00  0.0000000000000000e+00  0.0000000000000000e+00  0.0000000000000000e+00  0.0000000000000000e+00  0.0000000000000000e+00  0.0000000000000000e+00  0.0000000000000000e+00  0.0000000000000000e+00  0.0000000000000000e+00  0.0000000000000000e+00  0.0000000000000000e+00  0.0000000000000000e+00  0.0000000000000000e+00  0.0000000000000000e+00  0.0000000000000000e+00  0.0000000000000000e+00  0.0000000000000000e+00  0.0000000000000000e+00  0.0000000000000000e+00  0.0000000000000000e+00  0.0000000000000000e+00  0.0000000000000000e+00  0.0000000000000000e+00  0.0000000000000000e+00  0.0000000000000000e+00  0.0000000000000000e+00  0.0000000000000000e+00  0.0000000000000000e+00  0.0000000000000000e+00  0.0000000000000000e+00  0.0000000000000000e+00  0.0000000000000000e+00  0.0000000000000000e+00  0.0000000000000000e+00  0.0000000000000000e+00  0.0000000000000000e+00  0.0000000000000000e+00  0.0000000000000000e+00  0.0000000000000000e+00  0.0000000000000000e+00  0.0000000000000000e+00  0.0000000000000000e+00  0.0000000000000000e+00  0.0000000000000000e+00  3.9487879121921665e-01  3.9632447248293040e-01  3.9985326310871683e-01  4.0364724248154260e-01  4.0712326014449385e-01  4.1046615389262503e-01  4.1351345969965364e-01  4.1558433711082737e-01  4.1627472019717621e-01  4.1626748523485674e-01  4.1548472059321484e-01  4.1365648273589539e-01  4.1149273636145656e-01  4.0886513310371636e-01  4.0617004213721930e-01  4.0409976319832580e-01  4.0262043165380978e-01  4.0158570177309721e-01  4.0110982560910918e-01  4.0116775766745605e-01  4.0142542481554533e-01  4.0157668596838414e-01  4.0168678260237461e-01  4.0194676115782862e-01  4.0202822280542244e-01  4.0214162842016693e-01  4.0306753821766372e-01  4.0468907113389385e-01  4.0653857827276629e-01  4.0879745724787320e-01  4.1148003189789367e-01  4.1376690509992137e-01  4.1533255589517104e-01  4.1636738577198118e-01  4.1648709314704735e-01  4.1513765827985888e-01  4.1287798496210554e-01  4.1006013972440264e-01  4.0608264733528854e-01  4.0282912367400636e-01  3.9908152567036814e-01  3.9618221413793386e-01  3.9451158601892850e-01  3.9434329380527278e-01  3.9557435582709199e-01  3.9794969559539567e-01  4.0166390631308851e-01  4.0564637904707107e-01  4.0901103842898345e-01  4.1191475392740018e-01  4.1347422739206002e-01  4.1535065715686448e-01  4.1615144510142899e-01  4.1587646196611494e-01  4.1461219577430958e-01  4.1369250153272069e-01  4.1121577746795074e-01  4.0777219316909696e-01  4.0481947041951083e-01  4.0101823138610981e-01  3.9771403759845636e-01  3.9546752729630563e-01  4.5211579962880727e-01  4.6375744287944648e-01  4.5705442971872662e-01  4.4928422896880144e-01  4.5909828442482142e-01  4.6053560282706374e-01  4.5861239147222149e-01  4.5761065697970077e-01  4.6171767155605020e-01  4.5873959019412364e-01  4.7224450017288860e-01  4.7242049232094979e-01  4.6007533634821718e-01  4.7351994576452128e-01  4.7332641116034413e-01  4.6864837534625126e-01  4.7159038314710966e-01  4.6997869169733764e-01  4.6550260694354628e-01  4.6701079659169786e-01  4.6888783118672517e-01  4.5866349386993888e-01  4.5989900048611232e-01  4.5835967568737751e-01  4.5510525707344884e-01  4.5455573174351765e-01  4.5306416037834413e-01  4.5269867701383809e-01  4.5004060057427958e-01  4.7086603179297343e-01  5.1866008321139878e-01  5.1658797505324994e-01  5.6153338702339128e-01  5.5426662681849437e-01  6.0543552977150206e-01  6.0640071074823954e-01  5.9051652159587165e-01  6.3547474449682761e-01  6.1049001441274153e-01  6.5762274354270656e-01  6.2189539501896907e-01  6.7669293476886239e-01  6.2889903418904369e-01  6.6681018191014096e-01  6.0887184456797949e-01  6.4706085199530505e-01  6.7697510781636416e-01  6.4397910614204534e-01  5.9240417002602686e-01  6.0263728079555900e-01  6.5866176767935691e-01  5.9946003276989679e-01  6.4987161819030581e-01  5.9488605701025188e-01  6.2082098000742980e-01  6.7583529330726211e-01  6.3383177548913594e-01  6.8443194887530523e-01  6.3230575627564978e-01  6.7304248137679701e-01  6.1460925182153048e-01  6.4497942043866174e-01  5.8954595464705228e-01  5.9681078861614567e-01  6.4881796283598581e-01  5.9412928501519813e-01  6.3671271527956264e-01  5.8514919918958030e-01  6.0651485101325175e-01  6.6187814270059364e-01  6.2182605804340552e-01  6.7453723643106756e-01  6.2439790275708273e-01  5.8921061672853792e-01  5.9871366045240193e-01  6.8752593793053640e-01  5.9864348364557352e-01  5.8814119605558690e-01  5.9058084342322237e-01  5.7803872974650161e-01  6.1133684477895633e-01  5.5787102352364981e-01  5.4086685216414565e-01  5.6562887450991373e-01  5.2724614641333867e-01  5.4706868525694985e-01  5.5693585603198614e-01  5.5876363257815909e-01  5.7649146433689935e-01  5.4452474355811653e-01  5.5786585852545933e-01  5.5386730624888714e-01  5.6936063959324090e-01  5.4940698532980237e-01  6.9777098279444483e-01  5.8861173572079206e-01  5.4968015609508469e-01  5.2945586514118159e-01  5.5545735518530526e-01  5.3491565935224772e-01  5.2305969497350202e-01  5.3411352111704136e-01  5.1042845629056410e-01  5.3204653847921157e-01  5.4660895608329707e-01  5.0761517588776284e-01  5.3523267214564929e-01  5.3619340558209594e-01  6.9556449468136028e-01  5.2998771715662740e-01  5.4316979831099710e-01  5.4418362622084937e-01  5.1386494370687885e-01  5.7210758551419150e-01  5.3976345718981200e-01  5.2745475933381869e-01  5.6620397556132307e-01  5.2888253004648489e-01  4.9902778456732477e-01  5.0015479988872091e-01  5.0260272941469797e-01  5.0410432374659686e-01  5.9179245983365447e-01  5.4925374471927890e-01  5.1342155110111343e-01  6.4344850357519190e-01  7.1160920928090154e-01  4.8851444734596361e-01  7.1208941498404899e-01  6.8908785032747699e-01  5.2314180557226619e-01  4.9870680121425165e-01  6.9223168470840857e-01  6.6855443229774847e-01  5.6398419598497096e-01  4.6676351570698454e-01  4.6942859807276127e-01  5.2306465752061726e-01  4.6895888452067319e-01  4.6897560796032428e-01  4.9943915779064069e-01  5.0263832024749100e-01  4.6634845420301591e-01  4.6880369413063316e-01  4.6776341426219609e-01  4.5987825632603213e-01  4.7679242054210308e-01  4.7281627185017083e-01  4.6583291232710483e-01  5.1252829606166495e-01  5.1272611689952474e-01  5.0481638999795453e-01  5.1012052537650798e-01  5.0614450625627427e-01  5.6165683355311069e-01  4.6185015247455752e-01  5.1299522073147374e-01  4.5672672167807693e-01  5.0491058213927198e-01  4.6023476699144306e-01  4.6054310049316510e-01  4.6250718573755517e-01  5.0608106479152848e-01  5.3906515261911581e-01  4.5715687763453405e-01  5.1182833751622370e-01  4.5737905042933735e-01  5.0647673994351217e-01  5.2187161894018985e-01  4.5560280905294942e-01  4.5552593398664015e-01  4.5644858231865482e-01  5.0515853866083349e-01  7.1412297807320912e-01  4.5118559177678591e-01  7.1128773447771265e-01  4.5213726041716268e-01  4.9732667072373754e-01  4.5427320706267527e-01  4.4890708695445802e-01  4.5561228367426443e-01  4.9891669340173606e-01  5.4596322179302503e-01  6.9358505436306483e-01  7.1664218473165009e-01  5.0218705981102407e-01  4.6507683780670173e-01  4.5487198988514582e-01  5.1078857712079961e-01  4.6220875288125896e-01  6.8051880989358493e-01  5.4657698182908276e-01  5.3976615812117823e-01  5.4413149478888423e-01  4.5357247024131503e-01  5.1268213778829475e-01  5.0231748524677933e-01  4.9369945050046027e-01  5.0086066559495324e-01  4.9490602969624059e-01  5.7443596935368257e-01  5.1444745982985318e-01  5.4636497070201961e-01  5.0666861646872741e-01  5.0324884120946489e-01  4.9620727969495937e-01  5.4049692588969755e-01  5.1202224043885469e-01  5.0920925192043831e-01  4.9432943717823347e-01  4.9935223226057490e-01  5.4640123427237863e-01  7.1877840054122943e-01  4.9444089883817338e-01  7.1529993535873226e-01  5.5371888147186521e-01  4.5422304583146744e-01  5.5690654273911333e-01  4.4310937542992718e-01  5.7657618714147363e-01  5.6507379638951416e-01  5.9044126589931301e-01  5.2884037184052257e-01  5.0788040039409388e-01  5.7302978438045005e-01  5.8224636648079298e-01  5.8492619983559535e-01  4.9088836835089572e-01  5.5702830050729046e-01  5.4884756888914521e-01  5.3878157050302555e-01  5.0702595856061072e-01  4.5389415000986078e-01  5.4077901922851790e-01  5.6677102456253703e-01  4.9063672816193582e-01  4.9469629176780000e-01  4.9966064100011137e-01  5.5622836681594923e-01  4.9433914081195207e-01  5.7432717721742066e-01  5.4830252679710711e-01  5.6833607041710255e-01  5.0596097397754891e-01  5.6399170120437614e-01  5.7675509086964893e-01  5.3999459993749332e-01  5.6869319360828996e-01  4.9548816064867762e-01  5.7511041654871309e-01  5.6659756431035146e-01  6.0903896613121433e-01  5.0805226070584042e-01  3.6201666348791356e-01  3.5948542089428698e-01  3.5547044845965142e-01  3.4874643590435173e-01  3.5831239265337667e-01  3.6304401146807280e-01  3.4302689377531503e-01  3.6041499505338431e-01  3.5720192747676449e-01  3.5373186506236098e-01  3.4111229957591466e-01  3.4220583149548234e-01  3.4152057147569781e-01  3.4377275645985578e-01  3.3893522264853704e-01  3.3860117871419715e-01  3.4501232751695565e-01  1.9566657245893165e-02  3.6144123943075035e-01  2.0652439539545837e-02  2.0073024421072776e-02  2.0761463053120561e-02  2.0724370599087032e-02  1.9933146400212504e-02  3.5211455711940176e-01  2.0258134778005431e-02  3.4511347225142158e-01  3.5015299598943239e-01  1.9521109856242322e-02  3.4445594291027870e-01  3.5935053825004515e-01  3.4803598136358060e-01  3.5135360515132535e-01  4.6211071187519423e-02  4.4732270856690647e-02  3.8797994221737499e-02  4.2838477971162248e-02  4.8305789700427329e-02  5.0118810836005667e-02  4.5903316227606482e-02  4.1410709865483196e-02  5.4008760411461389e-02  4.7742024153621242e-02  4.8285316588643636e-02  5.2190028777821133e-02  5.6265458589716093e-03  6.7398014453897868e-03  5.8305168877844891e-03  5.1776367167230023e-03  4.7436380683432752e-03  4.6761171238159501e-03  4.7965263309429282e-03  6.8782694791366698e-03  3.3701100631533015e-01  2.9048958461741275e-01  2.8858423144791107e-01  2.4647035131646203e-01  2.4650807479727541e-01  2.4193116707165530e-01  2.0380403285561619e-01  2.0943130325235201e-01  1.5998537576976463e-01  1.5714470455136845e-01  2.0034892626269604e-01  1.5162608682827985e-01  1.9766257300599710e-01  1.4367479378528822e-01  1.7753099401049310e-01  1.3256436611509634e-01  1.6071221453115983e-01  1.1070981877381905e-01  1.3921681977990547e-01  9.7097869586414809e-02  1.1680253785900439e-01  1.6286128092675184e-01  1.3494651192750262e-01  1.8277610150023765e-01  1.4905746005035397e-01  7.8387333071631746e-02  2.0544776448480809e-01  1.6051461333506611e-01  1.1532529813977507e-01  1.0199626470412648e-01  2.1032455718543794e-01  1.6576788123162586e-01  2.2211620225317449e-01  1.6780210601298487e-01  2.2281906007894214e-01  1.6430923447942353e-01  2.0798301841597297e-01  2.1216650241337306e-01  6.2355030812615481e-02  4.7037023194937903e-02  1.6501138635931434e-01  5.9226239881319635e-02  2.1102160637941883e-01  1.1661674634018032e-01  1.5698995192130291e-01  2.0379933460643182e-01  1.2315516189081412e-01  1.4515343425656713e-01  1.8047994194707601e-01  1.2561421946123122e-01  1.5601291971104167e-01  2.1062069551514825e-01  1.9753404080772929e-01  1.3356578389090529e-01  1.6617322265393392e-01  2.2205119657618308e-01  1.9433607774950118e-01  1.4115564084657417e-01  1.5923000001445858e-01  1.1541100252926975e-01  1.3132906188019680e-01  1.8354554009432450e-01  1.4546082000881147e-01  1.9577302000156138e-01  1.6122846938211680e-01  1.1499685868525140e-01  1.1891226063695076e-01  1.5780557668060391e-01  1.2049747802870513e-01  1.5693533120745809e-01  8.2561534545186638e-02  1.1690723302355405e-01  1.5894591029625546e-01  1.0798253837076897e-01  1.4001738667346472e-01  1.9647311160928180e-01  8.9844950876197649e-02  2.6774514329999777e-01  9.3695732334427267e-02  1.2169275455526302e-01  1.7268524982378103e-01  1.5109961289871018e-01  2.1344369745267933e-01  1.8194040833151248e-01  1.2701251414823231e-01  1.5334628388518107e-01  2.0968481186391288e-01  1.8633780442582204e-01  7.3690092121474926e-02  9.4065160649681401e-02  2.2859298988706003e-01  7.8357283340994330e-02  2.5487422026862028e-01  2.4883275757922566e-01  2.3844311275284083e-01  1.9942697852455371e-01  2.5389140631012569e-01  2.2324627031422628e-01  1.6186312437403438e-01  1.7589068452310014e-01  2.2825934443575863e-01  1.8471030602991445e-01  2.3472900778602679e-01  1.9658146356935155e-01  1.4562635902464122e-01  1.4882759082187080e-01  1.8998842142991890e-01  1.4790469319541691e-01  1.8633331193164182e-01  1.4308387371506354e-01  1.7952020443167649e-01  1.3433765648466936e-01  1.6611089378218757e-01  1.2099550276837544e-01  1.4808600964754987e-01  9.4111819794633053e-02  8.1998844037097007e-02  1.0286467620857113e-01  6.0760699840375548e-02  1.9861535560131291e-01  1.7711188716510906e-01  1.2770970788384761e-01  1.5840503998457769e-01  1.0593612892698298e-01  2.2475778171726901e-01  1.2307500413835183e-01  1.7246148999115951e-01  1.3793260402230356e-01  1.9002301027941407e-01  1.5057487612826573e-01  2.3054076620225747e-01  7.1177213189904304e-02  2.1049165763832461e-01  1.6068835643127294e-01  4.9856878149572792e-02  2.1404683327284019e-01  1.7484666550408784e-01  2.1747039916753555e-01  1.6832871094877011e-01  2.1755269602979302e-01  1.6110792694764431e-01  2.0429195866322167e-01  1.5349723355284300e-01  1.9872624462542482e-01  1.4236767439277706e-01  1.7336313254137026e-01  1.2439089742243550e-01  1.5312238190878638e-01  1.0717908711144107e-01  1.3056237099280182e-01  1.7993909301766656e-01  1.5243509169970718e-01  1.0731457211312209e-01  1.2440816738796583e-01  8.4271381301980794e-02  9.6768618516434549e-02  1.3823629236057994e-01  1.0580601150427799e-01  1.4746493676617020e-01  1.1124320008708692e-01  1.5183553088755078e-01  1.8125960766140070e-01  6.2221903684195203e-02  1.0895421012528252e-01  1.5144734674641111e-01  1.9829888169588919e-01  2.0154330297900624e-01  1.4749476443322815e-01  1.8716917436888994e-01  1.3759015138839192e-01  1.7703591996299750e-01  1.2385384900498224e-01  2.0589811317685019e-01  5.1639734461021630e-02  2.3460115167184586e-01  7.5655740456005108e-02  3.4771218671783781e-02  2.2610866569135452e-01  3.3957153366926972e-02  8.1267096557924828e-02  4.2584609689986154e-02  1.2492317701285451e-01  2.3272127778046181e-01  2.3520482940747453e-01  2.4646315675304140e-01  7.7983231106105666e-02  1.1492411694346455e-01  1.1751095454382091e-01  2.4679810753556788e-01  8.6085609987867129e-02  2.7875715114034122e-01  2.5970674005687472e-01  2.8736160481900974e-01  2.6425613777116191e-01  2.2987806048157872e-01  2.4780493576984680e-01  2.4598128958837936e-01  7.2114581386569454e-02  2.6036078663875928e-01  1.2505338882662145e-01  2.7561259461734017e-01  3.0054862996522896e-01  2.6709944439567268e-01  1.7220600344201470e-01  3.4843898603744275e-02  2.1665939080971794e-02  2.5122904936805779e-01  2.8081879419469463e-01  2.6049479511651563e-01  1.1518803799843029e-01  1.1296558519458323e-01  2.9351652163169800e-01  2.5915618804013107e-01  2.6047247108643928e-01  2.5849417743377917e-01  2.6135936733299003e-01  2.6491913747977724e-01  2.7901469837533499e-01  2.5201892865965658e-01  2.7834014168256616e-01  3.0990573102552060e-01  2.7652914185157024e-01  2.8237166303338734e-01  2.6455446518127079e-01  7.5727529232078872e-02  2.3571518197853825e-01  2.4916791378593314e-01  2.8674542286815519e-01  3.1088004474619868e-01  2.8075590793929711e-01  2.4411403536801277e-01  9.9015113885235900e-02  3.1572936100098115e-01  2.8054050056899538e-01  9.4165570958854139e-02  1.0800046122032049e-01  7.8334250039428954e-02  2.6326827516335666e-02  4.6995498298827862e-02  5.6148865027214848e-02  6.6120237615815383e-02  4.6800327552394480e-02  2.8663295862111404e-01  2.8931364194422171e-01  2.9168626314653823e-01  2.9500549776657697e-01  2.5355129023900769e-01  2.9479594740766896e-01  2.6477917513990529e-01  3.1096595184615744e-01  2.4261805906586492e-01  2.7639522940381150e-01  2.2224678743477799e-01  2.7623059540951356e-01  3.4671225621731783e-01  3.1488333695139981e-01  3.4585314428927355e-01  2.4284932083165789e-02  3.4118545940553463e-01  2.9509155819411526e-01  2.9532360088976906e-01  2.5019409150689376e-01  9.3781190713048662e-02  3.4160772043158377e-01  2.9101833640967523e-01  3.2931682434336790e-01  2.7652424374405998e-01  7.7065390964366723e-02  2.9394287502538180e-01  2.2766710041904775e-01  2.9056130006323055e-01  3.3866093898992150e-01  2.9568403751691180e-01  2.9557960775619158e-01  3.4242829299260941e-01  3.3930561509634266e-01  2.9567411151147033e-01  2.8608498501978363e-01  3.4933580872167630e-01  2.6436419720887183e-01  3.0783896937542732e-01  3.0154088020023118e-01  3.4330522737941577e-01  2.9100391453001573e-01  3