<?xml version="1.0"?>
<VTKFile type="UnstructuredGrid"  version="0.1"  >
<UnstructuredGrid>
<Piece  NumberOfPoints="1183" NumberOfCells="2268">
<Points>
<DataArray  type="Float64"  NumberOfComponents="3"  format="ascii">0 0 0  0 1 0  1 1 0  1 0 0  1.1 -0.1 0  -0.1 -0.1 0  1.1 1.1 0  -0.1 1.1 0  0.5002199693278312 0.500170653161927 0  0.2390686721234277 0.5459734885467541 0  0 0.9499999999997918 0  0 0.8999999999995836 0  0 0.8499999999996529 0  0 0.7999999999999998 0  0 0.7500000000003466 0  0 0.7000000000006934 0  0 0.6500000000010401 0  0 0.6000000000013869 0  0 0.5500000000017335 0  0 0.5000000000020587 0  0 0.4500000000018723 0  0 0.4000000000016644 0  0 0.3500000000014564 0  0 0.3000000000012483 0  0 0.2500000000010403 0  0 0.2000000000008322 0  0 0.1500000000006241 0  0 0.100000000000416 0  0 0.05000000000020799 0  0.04999999999989965 0 0  0.09999999999981467 0 0  0.1499999999997036 0 0  0.1999999999995579 0 0  0.2499999999994121 0 0  0.2999999999992664 0 0  0.3499999999991206 0 0  0.3999999999989749 0 0  0.4499999999988292 0 0  0.4999999999986943 0 0  0.5499999999988151 0 0  0.5999999999989468 0 0  0.6499999999990784 0 0  0.69999999999921 0 0  0.7499999999993417 0 0  0.7999999999994734 0 0  0.8499999999996051 0 0  0.8999999999997368 0 0  0.9499999999998684 0 0  1 0.04999999999989965 0  1 0.09999999999981467 0  1 0.1499999999997036 0  1 0.1999999999995579 0  1 0.2499999999994121 0  1 0.2999999999992664 0  1 0.3499999999991206 0  1 0.3999999999989749 0  1 0.4499999999988292 0  1 0.4999999999986943 0  1 0.5499999999988151 0  1 0.5999999999989468 0  1 0.6499999999990784 0  1 0.69999999999921 0  1 0.7499999999993417 0  1 0.7999999999994734 0  1 0.8499999999996051 0  1 0.8999999999997368 0  1 0.9499999999998684 0  0.9499999999997918 1 0  0.8999999999995836 1 0  0.8499999999996529 1 0  0.7999999999999998 1 0  0.7500000000003466 1 0  0.7000000000006934 1 0  0.6500000000010401 1 0  0.6000000000013869 1 0  0.5500000000017335 1 0  0.5000000000020587 1 0  0.4500000000018723 1 0  0.4000000000016644 1 0  0.3500000000014564 1 0  0.3000000000012483 1 0  0.2500000000010403 1 0  0.2000000000008322 1 0  0.1500000000006241 1 0  0.100000000000416 1 0  0.05000000000020799 1 0  -0.1 1.05000000000004 0  -0.1 1.000000000000079 0  -0.1 0.9500000000001624 0  -0.1 0.9000000000003032 0  -0.1 0.850000000000444 0  -0.1 0.8000000000005848 0  -0.1 0.7500000000007256 0  -0.1 0.7000000000008665 0  -0.1 0.6500000000010508 0  -0.1 0.6000000000012352 0  -0.1 0.5500000000014196 0  -0.1 0.500000000001539 0  -0.1 0.4500000000014195 0  -0.1 0.4000000000013 0  -0.1 0.3500000000011588 0  -0.1 0.3000000000010178 0  -0.1 0.2500000000008986 0  -0.1 0.2000000000007579 0  -0.1 0.1500000000006174 0  -0.1 0.1000000000005272 0  -0.1 0.05000000000040083 0  -0.1 2.671196597248127e-13 0  -0.1 -0.0499999999998666 0  -0.0500000000000906 -0.1 0  -1.730560139634463e-13 -0.1 0  0.04999999999975802 -0.1 0  0.09999999999961506 -0.1 0  0.1499999999994613 -0.1 0  0.199999999999302 -0.1 0  0.2499999999991446 -0.1 0  0.2999999999990088 -0.1 0  0.3499999999988296 -0.1 0  0.3999999999986936 -0.1 0  0.4499999999985143 -0.1 0  0.4999999999984002 -0.1 0  0.5499999999985247 -0.1 0  0.5999999999986493 -0.1 0  0.6499999999987955 -0.1 0  0.6999999999989417 -0.1 0  0.7499999999990659 -0.1 0  0.7999999999992116 -0.1 0  0.8499999999993573 -0.1 0  0.8999999999994526 -0.1 0  0.949999999999584 -0.1 0  0.9999999999997226 -0.1 0  1.049999999999861 -0.1 0  1.1 -0.0500000000000906 0  1.1 -1.730560139634463e-13 0  1.1 0.04999999999975802 0  1.1 0.09999999999961506 0  1.1 0.1499999999994613 0  1.1 0.199999999999302 0  1.1 0.2499999999991446 0  1.1 0.2999999999990088 0  1.1 0.3499999999988296 0  1.1 0.3999999999986936 0  1.1 0.4499999999985143 0  1.1 0.4999999999984002 0  1.1 0.5499999999985247 0  1.1 0.5999999999986493 0  1.1 0.6499999999987955 0  1.1 0.6999999999989417 0  1.1 0.7499999999990659 0  1.1 0.7999999999992116 0  1.1 0.8499999999993573 0  1.1 0.8999999999994526 0  1.1 0.949999999999584 0  1.1 0.9999999999997226 0  1.1 1.049999999999861 0  1.05000000000004 1.1 0  1.000000000000079 1.1 0  0.9500000000001624 1.1 0  0.9000000000003032 1.1 0  0.850000000000444 1.1 0  0.8000000000005848 1.1 0  0.7500000000007256 1.1 0  0.7000000000008665 1.1 0  0.6500000000010508 1.1 0  0.6000000000012352 1.1 0  0.5500000000014196 1.1 0  0.500000000001539 1.1 0  0.4500000000014195 1.1 0  0.4000000000013 1.1 0  0.3500000000011588 1.1 0  0.3000000000010178 1.1 0  0.2500000000008986 1.1 0  0.2000000000007579 1.1 0  0.1500000000006174 1.1 0  0.1000000000005272 1.1 0  0.05000000000040083 1.1 0  2.671196597248127e-13 1.1 0  -0.0499999999998666 1.1 0  0.2465289643209738 0.5750469069761034 0  0.2589180387309568 0.6021697846026409 0  0.2747083932025376 0.6274536430974942 0  0.2941404337890808 0.6499343033106844 0  0.3167132260969703 0.6690419889457246 0  0.3406932757572141 0.6862165230989037 0  0.365774264459001 0.701772903228042 0  0.3921579640385729 0.7150765682819419 0  0.4196260098217917 0.7259600340839343 0  0.4479643658543294 0.7344675833415872 0  0.4769478160595593 0.7404054647294698 0  0.5062613511534056 0.7441053660519258 0  0.5359099490634545 0.745383230205881 0  0.5655853047907973 0.7423597099915746 0  0.5942985657463667 0.7342697177990435 0  0.6217433536562845 0.7224712513624385 0  0.6473285310693665 0.7072123264566247 0  0.6705825525979633 0.6885546640181438 0  0.6913537267623945 0.6672073636559692 0  0.7092356094146669 0.6434604341567033 0  0.723707260807358 0.6174041679716882 0  0.7347839970057712 0.5897122642335685 0  0.7423017965237766 0.5608939989586904 0  0.7452505675408858 0.5312286215058416 0  0.7439714482085739 0.5015668042066432 0  0.7399930365921698 0.4721667247496942 0  0.7334413776099669 0.4433267546212828 0  0.7242347132500166 0.4152264979412081 0  0.7128969715650773 0.3879474317681406 0  0.6995073964724725 0.3616242486021463 0  0.6838446850577403 0.3366049711337203 0  0.6663214582554013 0.3129017154203705 0  0.6467408645753113 0.2906980990239674 0  0.623858421612685 0.2717210897886947 0  0.5981711622501756 0.25657075503598 0  0.5706555494987996 0.2450104947802754 0  0.5414415690733032 0.2381890113046976 0  0.5115311405465578 0.2388009236279613 0  0.4825331918515813 0.2452448098353265 0  0.4543927356475811 0.2544015653709283 0  0.4271747159429622 0.2660387077532761 0  0.4014855938135519 0.2804620394460495 0  0.3768550652792438 0.2966886061895905 0  0.3535600298101645 0.3148369389307433 0  0.3318708687313669 0.3349017550803016 0  0.3120266220748985 0.3567230083816654 0  0.2940491256405332 0.3801513822799634 0  0.2781523468070614 0.4050359325926587 0  0.2642210100827245 0.431071323247369 0  0.2531745878839552 0.4585042705214109 0  0.2447656278767947 0.4869121522457573 0  0.2391016590460906 0.5160174738058162 0  0.2633526288157777 0.5068364881403838 0  0.3204662916778671 0.640531242317568 0  0.5018702191721387 0.2686481603512889 0  0.6386485206000976 0.3169842373689141 0  0.3899018709481696 0.6863921243515584 0  0.6850018760401537 0.3863958853077895 0  0.7113678345544184 0.4636225259129611 0  0.7142041287075965 0.5719474394840144 0  0.6596948563182636 0.6629363384667297 0  0.5783992788855646 0.715641870583677 0  0.4677799975007779 0.7119563861842005 0  0.4276708426680418 0.2956525534010332 0  0.358964893971407 0.3431376512034048 0  0.3073490611397391 0.404970416869651 0  0.5753364042052034 0.2732089479472559 0  0.2749243394528537 0.5779706265953781 0  0.2818595548229338 0.4533557651063601 0  0.6947121940362158 0.6148544269119373 0  0.6199297810551555 0.692889387483056 0  0.7190405989985688 0.5185513055271536 0  0.5219907308866897 0.7197562681556483 0  0.4024673356883363 0.309917312820394 0  0.4279595630555577 0.324946176244254 0  0.4542368394459985 0.3091854572640063 0  0.4559920937740647 0.3392891520390409 0  0.4274288923939045 0.354883017832761 0  0.4557467721037662 0.3663170326563893 0  0.4314697565028535 0.3922651458667271 0  0.4840094499307586 0.355657739001789 0  0.4836361683882573 0.3962628427367071 0  0.5247245477929739 0.3645712549679508 0  0.4472836176093689 0.4308236434783246 0  0.4082360737736604 0.4345070802903125 0  0.5206593405891563 0.3275447785541702 0  0.5599796611004036 0.3534108094663054 0  0.5762005437545223 0.3853677585289254 0  0.5550353319893666 0.3126475190855688 0  0.4366897904266438 0.4790130350723149 0  0.365764182994814 0.47298756668148 0  0.3947558028008716 0.5227916860808283 0  0.3444943882891168 0.5188733131743165 0  0.361188450885825 0.5685590065946453 0  0.4115698561329518 0.5701905361089746 0  0.3881248700751457 0.6066984198919503 0  0.4290023583717641 0.6178842554848916 0  0.4591074899044231 0.5784414799590475 0  0.4673886881501403 0.6229350723697946 0  0.5067320793329073 0.5932903545209111 0  0.5274127861654652 0.6264230599743749 0  0.5586171297974514 0.6011509495201943 0  0.5839074660321816 0.6362888882627391 0  0.6040034097850343 0.6061027541623758 0  0.5976349451002018 0.5639539753036101 0  0.6325110424581535 0.5647206318566058 0  0.6282532108368744 0.5233795896493915 0  0.5491586792523461 0.6709651279125697 0  0.6173152491102039 0.6371913426312253 0  0.4434130939474373 0.6566033805710745 0  0.489219695088794 0.6716461089049511 0  0.6061232569304884 0.3627457018748987 0  0.6065415052529167 0.4064676667268876 0  0.5856667391689446 0.4349397937360321 0  0.6331068389911165 0.3758079970630089 0  0.594901321140165 0.3304723909012237 0  0.5820769924681246 0.513568947345345 0  0.6242974712512932 0.4499131275121772 0  0.6496782552301654 0.4302116143612975 0  0.6586159621213373 0.4596265626011655 0  0.6785148769053461 0.4338334403440297 0  0.3983153743250791 0.3689975653048727 0  0.4021245421912973 0.6398008877773841 0  0.3691190688471667 0.6402452824819193 0  0.3544553147897194 0.6102789257841292 0  0.3285795655227679 0.576818879294055 0  0.6704946454396609 0.5358149504932292 0  0.6736249866357972 0.5707587215217066 0  0.6416302082101981 0.6139197277191298 0  0.5978776004601217 0.6680005787317295 0  0.3248588518271625 0.4757070710950772 0  0.34769381537
[...]
<PointData  Scalars="u"> 
<DataArray  type="Float64"  Name="u"  format="ascii">0.0000000000000000e+00  0.0000000000000000e+00  0.0000000000000000e+00  0.0000000000000000e+00  0.0000000000000000e+00  0.0000000000000000e+00  0.0000000000000000e+00  0.0000000000000000e+00  7.2877162669176487e-01  3.7879098050783083e-01  0.0000000000000000e+00  0.0000000000000000e+00  0.0000000000000000e+00  0.0000000000000000e+00  0.0000000000000000e+00  0.0000000000000000e+00  0.0000000000000000e+00  0.0000000000000000e+00  0.0000000000000000e+00  0.0000000000000000e+00  0.0000000000000000e+00  0.0000000000000000e+00  0.0000000000000000e+00  0.0000000000000000e+00  0.0000000000000000e+00  0.0000000000000000e+00  0.0000000000000000e+00  0.0000000000000000e+00  0.0000000000000000e+00  0.0000000000000000e+00  0.0000000000000000e+00  0.0000000000000000e+00  0.0000000000000000e+00  0.0000000000000000e+00  0.0000000000000000e+00  0.0000000000000000e+00  0.0000000000000000e+00  0.0000000000000000e+00  0.0000000000000000e+00  0.0000000000000000e+00  0.0000000000000000e+00  0.0000000000000000e+00  0.0000000000000000e+00  0.0000000000000000e+00  0.0000000000000000e+00  0.0000000000000000e+00  0.0000000000000000e+00  0.0000000000000000e+00  0.0000000000000000e+00  0.0000000000000000e+00  0.0000000000000000e+00  0.0000000000000000e+00  0.0000000000000000e+00  0.0000000000000000e+00  0.0000000000000000e+00  0.0000000000000000e+00  0.0000000000000000e+00  0.0000000000000000e+00  0.0000000000000000e+00  0.0000000000000000e+00  0.0000000000000000e+00  0.0000000000000000e+00  0.0000000000000000e+00  0.0000000000000000e+00  0.0000000000000000e+00  0.0000000000000000e+00  0.0000000000000000e+00  0.0000000000000000e+00  0.0000000000000000e+00  0.0000000000000000e+00  0.0000000000000000e+00  0.0000000000000000e+00  0.0000000000000000e+00  0.0000000000000000e+00  0.0000000000000000e+00  0.0000000000000000e+00  0.0000000000000000e+00  0.0000000000000000e+00  0.0000000000000000e+00  0.0000000000000000e+00  0.0000000000000000e+00  0.0000000000000000e+00  0.0000000000000000e+00  0.0000000000000000e+00  0.0000000000000000e+00  0.0000000000000000e+00  0.0000000000000000e+00  0.0000000000000000e+00  0.0000000000000000e+00  0.0000000000000000e+00  0.0000000000000000e+00  0.0000000000000000e+00  0.0000000000000000e+00  0.0000000000000000e+00  0.0000000000000000e+00  0.0000000000000000e+00  0.0000000000000000e+00  0.0000000000000000e+00  0.0000000000000000e+00  0.0000000000000000e+00  0.0000000000000000e+00  0.0000000000000000e+00  0.0000000000000000e+00  0.0000000000000000e+00  0.0000000000000000e+00  0.0000000000000000e+00  0.0000000000000000e+00  0.0000000000000000e+00  0.0000000000000000e+00  0.0000000000000000e+00  0.0000000000000000e+00  0.0000000000000000e+00  0.0000000000000000e+00  0.0000000000000000e+00  0.0000000000000000e+00  0.0000000000000000e+00  0.0000000000000000e+00  0.0000000000000000e+00  0.0000000000000000e+00  0.0000000000000000e+00  0.0000000000000000e+00  0.0000000000000000e+00  0.0000000000000000e+00  0.0000000000000000e+00  0.0000000000000000e+00  0.0000000000000000e+00  0.0000000000000000e+00  0.0000000000000000e+00  0.0000000000000000e+00  0.0000000000000000e+00  0.0000000000000000e+00  0.0000000000000000e+00  0.0000000000000000e+00  0.0000000000000000e+00  0.0000000000000000e+00  0.0000000000000000e+00  0.0000000000000000e+00  0.0000000000000000e+00  0.0000000000000000e+00  0.0000000000000000e+00  0.0000000000000000e+00  0.0000000000000000e+00  0.0000000000000000e+00  0.0000000000000000e+00  0.0000000000000000e+00  0.0000000000000000e+00  0.0000000000000000e+00  0.0000000000000000e+00  0.0000000000000000e+00  0.0000000000000000e+00  0.0000000000000000e+00  0.0000000000000000e+00  0.0000000000000000e+00  0.0000000000000000e+00  0.0000000000000000e+00  0.0000000000000000e+00  0.0000000000000000e+00  0.0000000000000000e+00  0.0000000000000000e+00  0.0000000000000000e+00  0.0000000000000000e+00  0.0000000000000000e+00  0.0000000000000000e+00  0.0000000000000000e+00  0.0000000000000000e+00  0.0000000000000000e+00  0.0000000000000000e+00  0.0000000000000000e+00  0.0000000000000000e+00  0.0000000000000000e+00  0.0000000000000000e+00  0.0000000000000000e+00  0.0000000000000000e+00  0.0000000000000000e+00  0.0000000000000000e+00  0.0000000000000000e+00  0.0000000000000000e+00  0.0000000000000000e+00  3.8159454741296422e-01  3.8699467911158297e-01  3.9234809737263621e-01  3.9978896625396815e-01  4.0937032531673007e-01  4.1626760334125917e-01  4.1974127623454865e-01  4.2157285154895635e-01  4.2183472073492573e-01  4.2070011621711223e-01  4.1801940074307103e-01  4.1319421900549758e-01  4.0625472891122394e-01  4.0124336134958044e-01  3.9964130694599231e-01  3.9924085891937033e-01  3.9899457861426035e-01  3.9949344516499452e-01  4.0019372812003062e-01  4.0031434296972962e-01  4.0083271585107350e-01  4.0178584685800395e-01  4.0335616961600351e-01  4.0745399650309694e-01  4.1315032601395241e-01  4.1794997377204818e-01  4.2063616063990616e-01  4.2249211613960080e-01  4.2202094817449359e-01  4.1928120939005459e-01  4.1485100270839481e-01  4.0782040369848643e-01  3.9838466698803959e-01  3.9106090975867447e-01  3.8639682108126228e-01  3.8118977507680551e-01  3.7882606638206523e-01  3.8482743359441157e-01  3.9604198363335763e-01  4.0519479249323459e-01  4.1325279703024409e-01  4.2030958491088594e-01  4.2485891978154394e-01  4.2712673494435360e-01  4.2759631837620588e-01  4.2637498838663357e-01  4.2367167066882350e-01  4.1885468966620837e-01  4.1192449588251817e-01  4.0448453602295670e-01  3.9535802696165961e-01  3.8461721085655720e-01  4.4815028260561973e-01  4.6718192396114067e-01  4.6114471076551872e-01  4.6421790919059785e-01  4.8501112612237840e-01  4.8407101823279997e-01  4.8728260038315763e-01  4.6709098561655443e-01  4.6642378482073432e-01  4.5971198731388824e-01  4.8746564304808510e-01  4.8417079433400140e-01  4.9141508317940302e-01  4.8574523959784954e-01  4.4766339808661304e-01  4.4890577829688805e-01  4.7305415482610308e-01  4.6966194996932054e-01  4.6811895945317583e-01  4.7736501888191668e-01  4.7551878981407225e-01  4.8821797965501473e-01  5.4017295258713238e-01  5.2929365824051067e-01  5.8338871277727067e-01  5.8868304892767565e-01  6.2356872782577721e-01  6.4199419446827910e-01  6.1917209423833997e-01  6.7189919863412939e-01  6.3324057413257173e-01  6.8725897231193622e-01  6.6069272212466579e-01  5.7560130975308732e-01  6.0097705687420011e-01  6.3297057224328601e-01  5.3724190526723592e-01  7.0685888485711712e-01  6.3316628273985487e-01  6.7016200883977606e-01  6.0460899155468106e-01  6.0854912878487200e-01  6.6343143640670688e-01  6.0592600416127307e-01  6.3012402003734835e-01  6.8737695723731773e-01  6.4322670253074687e-01  6.8316759806272809e-01  6.4015079599210034e-01  6.5865574835107710e-01  5.9647696331153299e-01  6.1490167297340292e-01  6.5892784799401138e-01  6.1510150798395336e-01  6.4053048104905308e-01  5.6367852366374305e-01  5.6187674756203954e-01  5.8261648548913925e-01  5.7251572293980180e-01  5.7503331893041598e-01  6.2371599627834939e-01  6.6893843866923286e-01  5.5782099529639551e-01  5.3881222445075438e-01  6.9149107410853761e-01  6.3377485837182601e-01  5.8504716352868069e-01  5.8731401858579757e-01  5.3800400418693506e-01  5.8114714867547290e-01  5.7675196395293737e-01  5.3980154245718392e-01  5.5888434416829380e-01  5.5077996408786489e-01  5.7048790922582526e-01  5.4670467759324426e-01  5.5971263986360487e-01  5.3551518431751244e-01  5.6658518977274541e-01  5.8391619177606002e-01  5.3924013138669280e-01  5.8381631986822247e-01  5.2620748697523656e-01  5.6441413057323642e-01  5.0457929771285870e-01  5.2508008826698593e-01  4.8383256707360350e-01  5.1307957060649367e-01  5.4532933834996311e-01  5.4058269106459600e-01  5.9386845041668990e-01  5.3908725832970950e-01  5.5108661430521033e-01  6.8928767825619564e-01  7.1269574353416765e-01  4.8265501860729282e-01  5.3327998256085096e-01  4.7504397051606373e-01  4.8577064806337572e-01  4.8117439719186783e-01  4.7322655890964627e-01  5.2290536603447690e-01  4.9004910462622397e-01  5.5281448843782155e-01  4.7906584103722361e-01  4.8825293288042521e-01  5.4125224311376463e-01  4.8779572486926015e-01  4.8648765985738746e-01  5.4121022376196115e-01  4.8388414357714199e-01  6.1688769483918615e-01  4.6135164885444369e-01  5.1668742317665028e-01  7.0704009070795260e-01  5.1872534905645717e-01  5.0417856151889417e-01  4.9236166032531981e-01  4.8579428183216528e-01  4.7052239773046295e-01  5.2513395934043361e-01  4.8672572268632530e-01  5.2337180047809229e-01  4.5293923034554923e-01  4.5180849475527568e-01  5.0709025581194633e-01  5.2213365884160345e-01  4.5444720560057300e-01  4.8032440518410419e-01  4.9042484235510286e-01  5.2208174860763956e-01  4.7070454060201444e-01  5.0392536646463748e-01  4.9644065151837613e-01  4.4247451263053506e-01  4.8801629050219425e-01  6.3186334147105039e-01  4.4993686699075125e-01  4.6423325370260476e-01  4.4508393008995989e-01  4.4012000049088507e-01  7.1523918859729596e-01  5.2670807640942208e-01  5.8636714485075048e-01  5.3852745263741597e-01  5.3092803061542437e-01  5.6554148099255697e-01  6.0588315617717503e-01  5.4320503494267947e-01  5.1494178544162805e-01  5.2765013458398746e-01  4.5163434918444939e-01  5.6686220624603445e-01  5.3261347114945856e-01  4.3420651978574726e-01  4.5193143326478180e-01  5.3246390560948520e-01  4.9410194409196767e-01  5.2999563494746660e-01  6.7628875965324919e-01  5.3893341194320399e-01  5.7158037404690432e-01  5.1055914059464402e-01  5.1505990715879546e-01  5.1736293919008092e-01  5.3602232659681781e-01  4.3274910855914916e-01  5.8152459377022125e-01  4.9502536309616768e-01  7.1548329350985607e-01  6.2557136561825444e-01  5.7946951977138450e-01  6.1584970204219014e-01  7.1400450278781968e-01  4.9245222834486801e-01  5.8052453662147829e-01  6.2222264585599663e-01  5.8454628963698663e-01  5.9363158474136157e-01  5.3450895340620164e-01  4.4489456005286943e-01  5.5753565908286129e-01  5.7124188997514480e-01  5.8664319301459555e-01  5.3497311079367615e-01  5.7803839490552034e-01  5.9744591425156901e-01  6.0205558511913515e-01  5.5952173449721121e-01  5.7977322736086800e-01  6.0032598396888626e-01  3.5417916329552213e-01  3.7646006904959395e-01  3.5243805773760994e-01  3.5082028701432738e-01  3.6920354642986497e-01  3.3653214543022042e-01  3.6869563956431234e-01  3.6850697344711386e-01  3.3946619515236226e-01  3.6092437154949358e-01  3.3068592907748490e-01  3.3020646901148981e-01  3.5362251377860615e-01  3.5595573877590087e-01  3.4957323388840261e-01  1.2963562128314853e-02  3.5415116847008221e-01  3.6365911421217600e-01  3.6666550017548194e-01  1.3540434765888837e-02  1.4230304671250494e-02  3.4921690431892571e-01  1.2408692349238188e-02  1.2140967624009171e-02  1.3220095114377736e-02  1.3877298948145612e-02  3.3923429972969998e-01  1.9046418428128903e-02  2.9117730585682407e-02  2.8855580829889059e-02  2.7004224257038488e-02  2.7742460464165081e-02  2.5307951189049594e-02  2.6960648483870066e-02  3.1851895038602418e-02  2.8339298053925658e-02  3.3922532300481596e-02  2.8229037608283807e-02  3.5590534698854488e-02  3.2822915231447813e-02  7.2929969444999725e-03  2.4100601218728437e-03  2.8208219194860869e-03  2.9097682610337377e-03  2.4932044281939327e-03  2.9130403962321482e-03  3.5238189471672207e-03  2.6835341259709923e-03  -8.9497899583331256e-04  3.3230149209220061e-01  2.8728161758676551e-01  2.8515289950557421e-01  2.4686451218543259e-01  2.4060933127412512e-01  2.4848741512756783e-01  2.0842360519883291e-01  2.0945766469864055e-01  1.6793206805857713e-01  1.6656632169079963e-01  2.0796438307432205e-01  1.6267438362843664e-01  1.9991868266141566e-01  1.5448628965124558e-01  1.8703258587746679e-01  1.4259899917974225e-01  1.7042810316383067e-01  1.2655530887548735e-01  1.4977753052081016e-01  1.0816425877162525e-01  1.2608113401981755e-01  1.7097577997530872e-01  1.4180181253045007e-01  1.1433545662761109e-01  8.7771607774302318e-02  7.2263236758410912e-02  1.8705591549252196e-01  1.5419622706026190e-01  1.1202845289453256e-01  1.9797755597602121e-01  1.6217271967331623e-01  2.1565474337219925e-01  1.6582108783094765e-01  2.0911231075612557e-01  1.6597337596217859e-01  2.0604240874365543e-01  1.5956990970349574e-01  1.9420078402739196e-01  5.6135479775315432e-02  1.4675936451735408e-01  1.8105859475401984e-01  1.3248480538839755e-01  1.6332611681623066e-01  1.1131663861175424e-01  1.2713675425807613e-01  2.2309749383274252e-01  1.2540674771859983e-01  4.2192272915374050e-02  5.6059963532285852e-02  1.6853479474103020e-01  1.2736412335827607e-01  1.2587716509150992e-01  1.1519673832149110e-01  1.4209732080370058e-01  1.9230790808277823e-01  1.6643161298803172e-01  1.2070146293453204e-01  1.4032520148710251e-01  9.8236520240845532e-02  1.1414834182354369e-01  1.5724754253257939e-01  1.2652391212001762e-01  1.6978793205549092e-01  1.3461338419660007e-01  9.7085744489209119e-02  1.0175986350157400e-01  1.4500734553922132e-01  1.0328839436273528e-01  1.3626278264305722e-01  9.7369917138705797e-02  1.2886651333296315e-01  7.0230880408292923e-02  1.7234863699688588e-01  1.6169563616892649e-01  8.7536827194618611e-02  7.1333660486387257e-02  2.1287844676708628e-01  2.1960849904869340e-01  7.6339681037910612e-02  2.1591145377742474e-01  1.9403934284045860e-01  1.4725126419781098e-01  1.7573360727920639e-01  1.2812837464578866e-01  1.5263907779286839e-01  1.0569154395634527e-01  1.2746308425072070e-01  1.7513222798771583e-01  1.4612464094855968e-01  2.0439844615972344e-01  1.6360496184301906e-01  2.1586547986245191e-01  1.7665758421320660e-01  2.3344844275220625e-01  1.8590064900319797e-01  2.3346580986560356e-01  1.8856303400400187e-01  1.4529404600362408e-01  1.4899926740167002e-01  1.8721057708844926e-01  1.4609141728325892e-01  1.8107519248291437e-01  1.3877619863789803e-01  1.7072674186375536e-01  1.2740572160529959e-01  1.5555531280551610e-01  1.1366011988150777e-01  1.3590768877347292e-01  9.0011762736870643e-02  1.1302149720330082e-01  1.8079168184709021e-01  1.5732071664568326e-01  1.1363861181608188e-01  1.2978097072375691e-01  7.7240437976594967e-02  5.8637085134433220e-02  8.9081194925837881e-02  1.7688182250907727e-01  1.4414733909828498e-01  1.3434831839747027e-01  6.7553963305337819e-02  2.2089318527127635e-01  2.2432764015035467e-01  1.9888530691949299e-01  1.5527889295167718e-01  2.0313250520627626e-01  1.6067212335387199e-01  2.1169073915727746e-01  1.6031354228586983e-01  2.0552860148736515e-01  1.5517137482947316e-01  2.0669664192442311e-01  1.4938477066757852e-01  1.8806550678790457e-01  1.3797824372332163e-01  1.6735050581271768e-01  1.2325377332749979e-01  1.4790737937726212e-01  1.0626895856965546e-01  1.2907070276748550e-01  1.8090223105336112e-01  1.4941504660195484e-01  1.0710209130998222e-01  1.2263738979285749e-01  1.6727484601759521e-01  1.3563785808488391e-01  9.6811234717393085e-02  1.0505544926496978e-01  1.4436432109369066e-01  1.1062414254396380e-01  1.4827003951435894e-01  7.1661367114481955e-02  1.8795123077339604e-01  1.9056098792957521e-01  1.4811108113967034e-01  1.8829836256265606e-01  1.4397931717346077e-01  1.0968825875161650e-01  1.8028765174584002e-01  1.3497498877501901e-01  6.3793280772585614e-02  4.4606120164921388e-02  2.3237451476406254e-01  1.7240232664781752e-01  1.2100282533998177e-01  2.3465419416806929e-01  2.2600245197021190e-01  2.5989347539719643e-01  1.1545877363055852e-01  2.5877949823457952e-01  2.2478582714812276e-01  4.0742422489056518e-02  4.9204954078853606e-02  2.3095751179974267e-01  2.1791178437215447e-01  2.2340667181669455e-01  1.0782357822003830e-01  2.5985416712253218e-01  8.4014589930574105e-02  4.8324195816901859e-02  2.3275969838235003e-01  2.8034025066808854e-01  2.7149764539756577e-01  8.2434931077711798e-02  2.7350454775116362e-01  3.1192666726213025e-02  6.8010321266839618e-02  3.1090615450697402e-02  2.4552473812700831e-01  2.2361495330710909e-01  3.7012116133104296e-02  2.3413750939652159e-02  5.3765526611976228e-02  6.8700065248090539e-02  6.5029067128514403e-02  4.3826991011406392e-02  4.6696832536158625e-02  2.6039229715227565e-02  2.6613703404836455e-02  2.6264594791214746e-01  7.5916104282697933e-02  5.5059537553114095e-02  6.1836152888274605e-02  9.5118641802548740e-02  2.7011740448762489e-01  4.6786658243450602e-02  2.7888006837297097e-01  2.7952028940791740e-01  3.2389525672416392e-01  3.0644286301912343e-01  8.8348515868513666e-02  7.6433063669690673e-02  2.5441444094128141e-01  2.3111698255376795e-01  2.5958979548312650e-01  2.7905554245324177e-01  3.2173391922327199e-01  6.5511773392837744e-02  2.2866034037824477e-02  2.6405543250192615e-01  3.0413948526569423e-01  2.2546091765952436e-01  2.9657541225769812e-01  4.4747754877905416e-02  4.6952148592641525e-02  2.4435052436796106e-01  4.7584933531746226e-02  1.4206319183599753e-01  3.1386050199509136e-01  3.0332210446950147e-01  2.6396645877113523e-01  2.9493333604321820e-01  2.5308017543755829e-01  2.8430575611604014e-01  3.2815122317873163e-01  3.3130173001635221e-01  2.2715215997519380e-02  2.0575263610827788e-02  2.6714452968987357e-01  2.9382502271718369e-01  2.7170004225391065e-01  8.9916333340466323e-02  9.0304763146202560e-02  9.5638070501015290e-02  4.0932123853293985e-02  6.8867222935605876e-02  4.6967798320330295e-02  9.0892314230877971e-02  7.3723256818793506e-02  7.5214163410910723e-02  5.2488919126190275e-02  3.4186706119759458e-01  3.0461344491648173e-01  3.1157261952489645e-01  2.9270122258026138e-01  2.6868697296872712e-01  3.4545284298242335e-01  3.0433469918103839e-01  3.0861687965766010e-01  3.1449978640847265e-01  2.7407421017972840e-02  2.8409259435562340e-01  2.8621400837118594e-01  6.6478947002583347e-02  3.2918916919130237e-01  3.8006899813197208e-02  3.5796880546350007e-01  3.5563457050858444e-01  3.0854619375222780e-01  3.0693559458777336e-01  2.6056016802558674e-01  3.0711360019332001e-01  1.2594326518682053e-02  3.4565997776381274e-01  3.3080289457709489e-01  3.1792934277952195e-01  2.6958154688179503e-01  3.0245010291650831e-01  3.2951257385513655e-01  2.3833247289317891e-01  3.0964741031087917e-02  4.0509457906891422e-02  2.5745002641987713e-01  2.3386996096958931e-01  3.0467386335148183e-01  3.1179141971772123e-01  3.0262291435974503e-01  3.3008223252223678e-01  2.7854220715090239e-01  3.6679123149230991e-01  2.7012427485421076e-01  2.3397977066870743e-01  2.2516571891572770e-01  2.7161353645688752e-01  3.4418755638024062e-01  3.0356337590156379e-01  2.6465998912696004e-01  3.1105369322181686e-01  3.5651900098547651e-01  3.1043779960500367e-01  3.1388250279124114e-01  2.6927691428306849e-01  2.1899784912109574e-01  3.6270723897185619e-01  3.1930521930778488e-01  2.1046454929115233e-01  3.6911916670566819e-01  3.2294691307800216e-01  3.1686107321099860e-01  3.2680075695580685e-01  2.8027017039079966e-01  2.7565176703963634e-01  3.6367684079779783e-01  3.2239283264451835e-01  3.1718842979751682e-01  2.7103025487766591e-01  2.8482636093365471e-01  2.7844697898104631e-01  3.6607046626479550e-01  3.2381628678294744e-01  3.2407075221669901e-01  2.8135521210585884e-01  3.1503661423891705e-01  2.7174137908939550e-01  2.7782634434391112e-01  3.4875979497458226e-01  3.0673629563934424e-01  3.6598213923602191e-01  1.9610005803662969e-01  4.2990528757463203e-02  2.4430684980791961e-01  2.3054394145617554e-01  3.2392730230885253e-01  3.4464761834775609e-01  3.5397781425815172e-01  2.3385553575388479e-01  3.2639193258907732e-02  5.8675891856639219e-02  2.3206911300296668e-01  3.3010756379766817e-02  6.9627105569198780e-02  7.3896076210416078e-02  3.9307679155284853e-02  6.7465245522011483e-02  6.7115726257006486e-02  6.4853930696385328e-02  1.8113571906319106e-01  3.0418377653328771e-01  1.8338822285489972e-01  1.9892148093008777e-01  2.6799310384596259e-01  3.1427710916708561e-02  6.1641059007714702e-02  5.6584634236971347e-02  9.8924169034026815e-02  2.4997529562970702e-02  2.1194765148514396e-02  8.5112405904896826e-02  6.6918872833591922e-02  7.3019745938459321e-02  