<?xml version="1.0"?>
<VTKFile type="UnstructuredGrid"  version="0.1"  >
<UnstructuredGrid>
<Piece  NumberOfPoints="1008" NumberOfCells="1918">
<Points>
<DataArray  type="Float64"  NumberOfComponents="3"  format="ascii">0 0 0  0 1 0  1 1 0  1 0 0  1.1 -0.1 0  -0.1 -0.1 0  1.1 1.1 0  -0.1 1.1 0  0.3107731312207575 0.5330735854704979 0  0.541989590798975 0.5425852283061382 0  0 0.9499999999997918 0  0 0.8999999999995836 0  0 0.8499999999996529 0  0 0.7999999999999998 0  0 0.7500000000003466 0  0 0.7000000000006934 0  0 0.6500000000010401 0  0 0.6000000000013869 0  0 0.5500000000017335 0  0 0.5000000000020587 0  0 0.4500000000018723 0  0 0.4000000000016644 0  0 0.3500000000014564 0  0 0.3000000000012483 0  0 0.2500000000010403 0  0 0.2000000000008322 0  0 0.1500000000006241 0  0 0.100000000000416 0  0 0.05000000000020799 0  0.04999999999989965 0 0  0.09999999999981467 0 0  0.1499999999997036 0 0  0.1999999999995579 0 0  0.2499999999994121 0 0  0.2999999999992664 0 0  0.3499999999991206 0 0  0.3999999999989749 0 0  0.4499999999988292 0 0  0.4999999999986943 0 0  0.5499999999988151 0 0  0.5999999999989468 0 0  0.6499999999990784 0 0  0.69999999999921 0 0  0.7499999999993417 0 0  0.7999999999994734 0 0  0.8499999999996051 0 0  0.8999999999997368 0 0  0.9499999999998684 0 0  1 0.04999999999989965 0  1 0.09999999999981467 0  1 0.1499999999997036 0  1 0.1999999999995579 0  1 0.2499999999994121 0  1 0.2999999999992664 0  1 0.3499999999991206 0  1 0.3999999999989749 0  1 0.4499999999988292 0  1 0.4999999999986943 0  1 0.5499999999988151 0  1 0.5999999999989468 0  1 0.6499999999990784 0  1 0.69999999999921 0  1 0.7499999999993417 0  1 0.7999999999994734 0  1 0.8499999999996051 0  1 0.8999999999997368 0  1 0.9499999999998684 0  0.9499999999997918 1 0  0.8999999999995836 1 0  0.8499999999996529 1 0  0.7999999999999998 1 0  0.7500000000003466 1 0  0.7000000000006934 1 0  0.6500000000010401 1 0  0.6000000000013869 1 0  0.5500000000017335 1 0  0.5000000000020587 1 0  0.4500000000018723 1 0  0.4000000000016644 1 0  0.3500000000014564 1 0  0.3000000000012483 1 0  0.2500000000010403 1 0  0.2000000000008322 1 0  0.1500000000006241 1 0  0.100000000000416 1 0  0.05000000000020799 1 0  -0.1 1.05000000000004 0  -0.1 1.000000000000079 0  -0.1 0.9500000000001624 0  -0.1 0.9000000000003032 0  -0.1 0.850000000000444 0  -0.1 0.8000000000005848 0  -0.1 0.7500000000007256 0  -0.1 0.7000000000008665 0  -0.1 0.6500000000010508 0  -0.1 0.6000000000012352 0  -0.1 0.5500000000014196 0  -0.1 0.500000000001539 0  -0.1 0.4500000000014195 0  -0.1 0.4000000000013 0  -0.1 0.3500000000011588 0  -0.1 0.3000000000010178 0  -0.1 0.2500000000008986 0  -0.1 0.2000000000007579 0  -0.1 0.1500000000006174 0  -0.1 0.1000000000005272 0  -0.1 0.05000000000040083 0  -0.1 2.671196597248127e-13 0  -0.1 -0.0499999999998666 0  -0.0500000000000906 -0.1 0  -1.730560139634463e-13 -0.1 0  0.04999999999975802 -0.1 0  0.09999999999961506 -0.1 0  0.1499999999994613 -0.1 0  0.199999999999302 -0.1 0  0.2499999999991446 -0.1 0  0.2999999999990088 -0.1 0  0.3499999999988296 -0.1 0  0.3999999999986936 -0.1 0  0.4499999999985143 -0.1 0  0.4999999999984002 -0.1 0  0.5499999999985247 -0.1 0  0.5999999999986493 -0.1 0  0.6499999999987955 -0.1 0  0.6999999999989417 -0.1 0  0.7499999999990659 -0.1 0  0.7999999999992116 -0.1 0  0.8499999999993573 -0.1 0  0.8999999999994526 -0.1 0  0.949999999999584 -0.1 0  0.9999999999997226 -0.1 0  1.049999999999861 -0.1 0  1.1 -0.0500000000000906 0  1.1 -1.730560139634463e-13 0  1.1 0.04999999999975802 0  1.1 0.09999999999961506 0  1.1 0.1499999999994613 0  1.1 0.199999999999302 0  1.1 0.2499999999991446 0  1.1 0.2999999999990088 0  1.1 0.3499999999988296 0  1.1 0.3999999999986936 0  1.1 0.4499999999985143 0  1.1 0.4999999999984002 0  1.1 0.5499999999985247 0  1.1 0.5999999999986493 0  1.1 0.6499999999987955 0  1.1 0.6999999999989417 0  1.1 0.7499999999990659 0  1.1 0.7999999999992116 0  1.1 0.8499999999993573 0  1.1 0.8999999999994526 0  1.1 0.949999999999584 0  1.1 0.9999999999997226 0  1.1 1.049999999999861 0  1.05000000000004 1.1 0  1.000000000000079 1.1 0  0.9500000000001624 1.1 0  0.9000000000003032 1.1 0  0.850000000000444 1.1 0  0.8000000000005848 1.1 0  0.7500000000007256 1.1 0  0.7000000000008665 1.1 0  0.6500000000010508 1.1 0  0.6000000000012352 1.1 0  0.5500000000014196 1.1 0  0.500000000001539 1.1 0  0.4500000000014195 1.1 0  0.4000000000013 1.1 0  0.3500000000011588 1.1 0  0.3000000000010178 1.1 0  0.2500000000008986 1.1 0  0.2000000000007579 1.1 0  0.1500000000006174 1.1 0  0.1000000000005272 1.1 0  0.05000000000040083 1.1 0  2.671196597248127e-13 1.1 0  -0.0499999999998666 1.1 0  0.3381445168637971 0.5902951540705154 0  0.3827249124005479 0.6272425207309521 0  0.4320116760974596 0.6521059796174439 0  0.4858901070787905 0.6667574526061553 0  0.5450434379640657 0.6686159796010626 0  0.6020175113049689 0.6451923230538068 0  0.6462887646079442 0.5994757071718446 0  0.6683422647466334 0.5412808583805033 0  0.6654659773136045 0.4827792640245125 0  0.6500891491875028 0.4297184595445505 0  0.6247404032366348 0.3801583989338106 0  0.5868768258384043 0.3362633058636114 0  0.5287499230211329 0.3108101510587318 0  0.4704964606071616 0.3242254499364293 0  0.4234500409970144 0.3515819090221678 0  0.383285533400933 0.385706698140614 0  0.3490726095198636 0.4266409488739994 0  0.3226555102877968 0.4742618329913968 0  0.4085662729065748 0.4434036103126072 0  0.4885752147649022 0.379987831432582 0  0.4260965379979018 0.5928275937337523 0  0.5854206843814557 0.4248120908556761 0  0.6103463038130015 0.5239548495311238 0  0.523979032334721 0.6142985573638391 0  0.3566183440183391 0.5318225346194605 0  0.5879396539385776 0.5881667785242262 0  0.5629383149850973 0.4821856333182067 0  0.5018211896192395 0.4964546910114513 0  0.475472822020395 0.5563371004485413 0  0.4381422358945859 0.4953030231136955 0  0.5146097082456988 0.4366718338081761 0  0.5329239326925249 0.356165878423462 0  0.4399269133827914 0.4063844025754282 0  0.468744191710022 0.6166478975730417 0  0.3786643571711947 0.4836489142103725 0  0.4618933183218875 0.4565322770966669 0  0.4097671546861462 0.5397285323994786 0  0.6157950515194205 0.4689594731846586 0  0.540837507331832 0.3969512968192645 0  0.3829793707957047 0.5761259566083499 0  0.6282894893443264 0.5632416983753147 0  0.5647788473317196 0.6290621088554624 0  0.5754803934887265 0.3770859477742798 0  0.6313270483899991 0.6290221090313459 0  0.6214035966360195 0.3595985411722982 0  0.3595436984656591 0.6221408060350226 0  0.3878124173715612 0.366258089397292 0  0.6782550601701129 0.5113943529618161 0  0.5083610647044934 0.6784274740595787 0  0.3087105234868287 0.4880395279264868 0  0.7401779012231375 0.9823913718784588 0  0.9827269552539596 0.2657436593238405 0  0.2740279648778528 0.980912708436055 0  0.9861494052612876 0.6932225518633237 0  0.02834175715504092 0.2681855168426249 0  0.4855828204539179 0.3094304341678165 0  0.0281083147529104 0.6992846458934525 0  0.6931155081232664 0.02572465951493145 0  0.5926548039583823 0.9903256886800554 0  0.314393743022377 0.03210909923714694 0  0.4250315726930122 0.9923129000469716 0  0.9896442166408804 0.4391107885189386 0  0.03059007814868924 0.4236344144810786 0  0.537681589397258 0.01999443198286197 0  0.5261050715866212 0.3006336661182477 0  0.491363371360014 0.2935948714563479 0  0.5284245481534577 0.2858065473938744 0  0.4947626029729267 0.2759101767429333 0  0.5308275968693769 0.2676968266569267 0  0.4959745129900727 0.2542807958344682 0  0.46017356660109 0.2656179812485899 0  0.5323937710028452 0.2454612996087502 0  0.4985092623783569 0.2319631031751869 0  0.3004840994380271 0.5304631704117787 0  0.2924890332718661 0.4965325945959547 0  0.2857337621702439 0.5336777176455767 0  0.2748679124796272 0.5004571479988421 0  0.2676563387784852 0.5367145233985866 0  0.2541796075160689 0.5050750630635504 0  0.2643945337372303 0.4678652518272042 0  0.2457429027352908 0.5399885136626991 0  0.2638409250025431 0.572963733311719 0  0.2391257853840207 0.5752225645657518 0  0.2610448649306388 0.6086056497743357 0  0.2313801628180485 0.6096023579550769 0  0.256930145002932 0.6429553113908079 0  0.2394626345579451 0.4749181753843871 0  0.252974220768945 0.4356892838734451 0  0.5668111684010732 0.2628004497579089 0  0.5680122080406064 0.2377648384719125 0  0.6031833360097456 0.2600006620038153 0  0.6030059594043051 0.2307738933719048 0  0.6376737770017799 0.2555934589194451 0  0.2113860819840613 0.576804134894883 0  0.2231294781004611 0.6444153230827352 0  0.2512163977920185 0.6771884328637372 0  0.6374459757602476 0.2233888274603626 0  0.6707381171094865 0.2487136970666836 0  0.2238545048501145 0.4454505965606449 0  0.2389487188145312 0.4047197913881868 0  0.1650801086995461 0.02651582892292387 0  0.8456091291012142 0.02851673310363828 0  0.02861587149406543 0.8476787584437355 0  0.9824669075330338 0.8472814130505509 0  0.2858201064350115 0.6766023345109065 0  0.279883857628671 0.7090405120171195 0  0.2453541457160446 0.7106308552112941 0  0.3162520084800742 0.7101612885353121 0  0.3091924676374349 0.7398441047469998 0  0.3472620452649126 0.7394615560039259 0  0.3387104051544987 0.7692739816037383 0  0.378901281065796 0.7677411388706917 0  0.6717463089057041 0.2828952343328908 0  0.7034130542833071 0.2755818463944923 0  0.7044135996049987 0.3114750056680313 0  0.7346922515225647 0.3035153998489786 0  0.7352956080450513 0.3416022678161531 0  0.7352032604624973 0.2668061181209768 0  0.7647264039855957 0.3316609948279901 0  0.7643896821022952 0.3726284793461549 0  0.7940216877815699 0.360297659233237 0  0.7923760949782407 0.4034332303951531 0  0.3685404883222145 0.7977885228052871 0  0.4102140557777215 0.7950566116541909 0  0.3273298640030927 0.7986869733943202 0  0.2068265603493717 0.4150778351487877 0  0.2221404701973415 0.3748978455172378 0  0.2565729622341507 0.36389776579052 0  0.2401559155620442 0.3344468581099826 0  0.6028041442656731 0.2003273506117715 0  0.2033655715606865 0.3448003847767039 0  0.22
[...]
<PointData  Scalars="u"> 
<DataArray  type="Float64"  Name="u"  format="ascii">0.0000000000000000e+00  0.0000000000000000e+00  0.0000000000000000e+00  0.0000000000000000e+00  0.0000000000000000e+00  0.0000000000000000e+00  0.0000000000000000e+00  0.0000000000000000e+00  1.9814215191352480e-01  3.5871483043030183e-01  0.0000000000000000e+00  0.0000000000000000e+00  0.0000000000000000e+00  0.0000000000000000e+00  0.0000000000000000e+00  0.0000000000000000e+00  0.0000000000000000e+00  0.0000000000000000e+00  0.0000000000000000e+00  0.0000000000000000e+00  0.0000000000000000e+00  0.0000000000000000e+00  0.0000000000000000e+00  0.0000000000000000e+00  0.0000000000000000e+00  0.0000000000000000e+00  0.0000000000000000e+00  0.0000000000000000e+00  0.0000000000000000e+00  0.0000000000000000e+00  0.0000000000000000e+00  0.0000000000000000e+00  0.0000000000000000e+00  0.0000000000000000e+00  0.0000000000000000e+00  0.0000000000000000e+00  0.0000000000000000e+00  0.0000000000000000e+00  0.0000000000000000e+00  0.0000000000000000e+00  0.0000000000000000e+00  0.0000000000000000e+00  0.0000000000000000e+00  0.0000000000000000e+00  0.0000000000000000e+00  0.0000000000000000e+00  0.0000000000000000e+00  0.0000000000000000e+00  0.0000000000000000e+00  0.0000000000000000e+00  0.0000000000000000e+00  0.0000000000000000e+00  0.0000000000000000e+00  0.0000000000000000e+00  0.0000000000000000e+00  0.0000000000000000e+00  0.0000000000000000e+00  0.0000000000000000e+00  0.0000000000000000e+00  0.0000000000000000e+00  0.0000000000000000e+00  0.0000000000000000e+00  0.0000000000000000e+00  0.0000000000000000e+00  0.0000000000000000e+00  0.0000000000000000e+00  0.0000000000000000e+00  0.0000000000000000e+00  0.0000000000000000e+00  0.0000000000000000e+00  0.0000000000000000e+00  0.0000000000000000e+00  0.0000000000000000e+00  0.0000000000000000e+00  0.0000000000000000e+00  0.0000000000000000e+00  0.0000000000000000e+00  0.0000000000000000e+00  0.0000000000000000e+00  0.0000000000000000e+00  0.0000000000000000e+00  0.0000000000000000e+00  0.0000000000000000e+00  0.0000000000000000e+00  0.0000000000000000e+00  0.0000000000000000e+00  0.0000000000000000e+00  0.0000000000000000e+00  0.0000000000000000e+00  0.0000000000000000e+00  0.0000000000000000e+00  0.0000000000000000e+00  0.0000000000000000e+00  0.0000000000000000e+00  0.0000000000000000e+00  0.0000000000000000e+00  0.0000000000000000e+00  0.0000000000000000e+00  0.0000000000000000e+00  0.0000000000000000e+00  0.0000000000000000e+00  0.0000000000000000e+00  0.0000000000000000e+00  0.0000000000000000e+00  0.0000000000000000e+00  0.0000000000000000e+00  0.0000000000000000e+00  0.0000000000000000e+00  0.0000000000000000e+00  0.0000000000000000e+00  0.0000000000000000e+00  0.0000000000000000e+00  0.0000000000000000e+00  0.0000000000000000e+00  0.0000000000000000e+00  0.0000000000000000e+00  0.0000000000000000e+00  0.0000000000000000e+00  0.0000000000000000e+00  0.0000000000000000e+00  0.0000000000000000e+00  0.0000000000000000e+00  0.0000000000000000e+00  0.0000000000000000e+00  0.0000000000000000e+00  0.0000000000000000e+00  0.0000000000000000e+00  0.0000000000000000e+00  0.0000000000000000e+00  0.0000000000000000e+00  0.0000000000000000e+00  0.0000000000000000e+00  0.0000000000000000e+00  0.0000000000000000e+00  0.0000000000000000e+00  0.0000000000000000e+00  0.0000000000000000e+00  0.0000000000000000e+00  0.0000000000000000e+00  0.0000000000000000e+00  0.0000000000000000e+00  0.0000000000000000e+00  0.0000000000000000e+00  0.0000000000000000e+00  0.0000000000000000e+00  0.0000000000000000e+00  0.0000000000000000e+00  0.0000000000000000e+00  0.0000000000000000e+00  0.0000000000000000e+00  0.0000000000000000e+00  0.0000000000000000e+00  0.0000000000000000e+00  0.0000000000000000e+00  0.0000000000000000e+00  0.0000000000000000e+00  0.0000000000000000e+00  0.0000000000000000e+00  0.0000000000000000e+00  0.0000000000000000e+00  0.0000000000000000e+00  0.0000000000000000e+00  0.0000000000000000e+00  0.0000000000000000e+00  0.0000000000000000e+00  0.0000000000000000e+00  0.0000000000000000e+00  0.0000000000000000e+00  0.0000000000000000e+00  0.0000000000000000e+00  0.0000000000000000e+00  0.0000000000000000e+00  0.0000000000000000e+00  0.0000000000000000e+00  0.0000000000000000e+00  0.0000000000000000e+00  0.0000000000000000e+00  0.0000000000000000e+00  2.0833740236512649e-01  2.2080406237822539e-01  2.2757487693926470e-01  2.2475953676746915e-01  2.1443186058460137e-01  2.1130557945039688e-01  2.1116901333358024e-01  2.1498151740994109e-01  2.2566269194306243e-01  2.2789145234988248e-01  2.2042706943891627e-01  2.0698904947290706e-01  1.9817543856127245e-01  2.1626782655847299e-01  2.2995315295081370e-01  2.3378970597426460e-01  2.2930934750240956e-01  2.1544714413072258e-01  3.1896113876645399e-01  3.0636056865962069e-01  3.0584745389235468e-01  3.1234308604081873e-01  3.1081563908591764e-01  3.0720073793500147e-01  2.7575628381142631e-01  2.9687107378381089e-01  3.5430635749367506e-01  3.7754178203456890e-01  3.5936535843919037e-01  3.5896778974475468e-01  3.5831426205746297e-01  2.7384283480831040e-01  3.1516193813991950e-01  2.9959963969156816e-01  3.0447605742912248e-01  3.5909730229705167e-01  3.2955829116963392e-01  2.9962924998393586e-01  3.1481263595325853e-01  2.8098611300289622e-01  2.6752744056326672e-01  2.6618358143094323e-01  2.7351353533542583e-01  1.9316964294733263e-01  1.9597925643837880e-01  1.9650608677811357e-01  2.0964738609878361e-01  2.0070828258162177e-01  2.0112943926436516e-01  1.9156151035254704e-01  -6.1153138288865408e-03  -5.7512724847572048e-03  -6.0395212558187073e-03  -4.2596709742126915e-03  -7.6569321959945461e-03  1.9136025722150643e-01  -6.3110545901160055e-03  -5.8434151012898786e-03  -2.0338359157172220e-03  -6.4687352321262217e-03  -1.3789262252680600e-03  -1.8130072361854817e-03  -2.6268953947953186e-03  -1.7470890003252839e-03  1.7795805651107349e-01  1.6519747470245127e-01  1.5300344645720190e-01  1.3987580247684989e-01  1.2785990283578236e-01  1.1332767227590185e-01  1.2101650854839709e-01  1.0198977633722862e-01  8.9895981736037883e-02  1.7784391628243645e-01  1.6482960213400746e-01  1.5271776926923508e-01  1.3952583574156055e-01  1.2758600534695080e-01  1.1403702996555477e-01  1.2203784447220632e-01  1.0186956028232287e-01  1.1283888859129343e-01  8.7239711702238751e-02  9.5546197478579759e-02  6.9687262091182867e-02  7.5775824511525647e-02  9.5998599695559600e-02  1.0106945509428190e-01  1.1307082265570599e-01  8.7318329082992724e-02  9.6262959662080649e-02  7.0845331975318865e-02  7.6510855736806563e-02  6.3218569430296870e-02  5.1545803082779798e-02  5.5449864128871644e-02  5.3592121038500917e-02  5.6226933988122396e-02  7.6383192121490542e-02  7.8154905411952635e-02  -9.6139331310899929e-03  -1.0121942127386799e-02  -1.0127754783681255e-02  -7.3558679384333895e-03  7.8302082651503194e-02  5.5868201370681755e-02  3.7366638111872248e-02  7.5832058870474964e-02  5.3019580722456605e-02  7.0681142201163935e-02  4.7384514257094841e-02  6.2198565664564810e-02  7.8458202513147654e-02  5.5863895853187913e-02  7.6092032788553893e-02  5.2691282909805827e-02  7.0308451878742712e-02  3.5885627770453982e-02  4.6873647548356850e-02  6.1864929801535150e-02  3.9188940342222568e-02  5.1125001944500731e-02  3.9807509987390785e-02  5.1324795153608167e-02  2.8089316270814905e-02  5.6384753115445017e-02  5.5531760797083558e-02  7.5916681314277035e-02  5.1991237188165777e-02  4.8973998619452196e-02  3.4966153747789948e-02  3.0685936663482401e-02  4.5815459064232802e-02  2.4529844454055420e-02  3.7236412403742411e-02  1.7190725546918615e-02  2.7299897697261395e-02  3.4009858994936540e-02  7.4930021774306235e-03  -2.4702936108605624e-03  3.0571088418869751e-02  3.9225744139824499e-02  6.1094419750787159e-02  4.5886912436044008e-02  6.7878700566413222e-02  4.9826084373143856e-02  7.0808758432692659e-02  5.0453317374563447e-02  6.9443663260506439e-02  4.7851304126061381e-02  6.4379949509560719e-02  4.2037676648085810e-02  5.6206129605149535e-02  3.3924674856608036e-02  4.5198221442559298e-02  2.4334500730647139e-02  3.3129385284005601e-02  3.2620401544959987e-02  1.4517036618117273e-02  2.1137539827446535e-02  4.0787495040467386e-02  2.6291303576385389e-02  2.0799027925359776e-02  7.7600873264088320e-03  1.3002154851764891e-04  4.5950862770202529e-02  2.9556981369480161e-02  -4.8076252677986247e-03  3.0993953600850215e-02  1.3868081406271606e-02  -1.0211284179188308e-02  7.5845529358436664e-02  6.4373518046753841e-02  -2.3659550918708650e-03  -1.0224981030803998e-02  -8.1703349177841278e-03  1.8757415526500800e-03  -9.6775476453070230e-03  -1.8267417406799640e-03  2.7686286418621940e-02  8.8273654481790281e-02  1.5829352954738779e-02  1.7367891799743938e-02  2.0374369350512195e-02  -7.7237014203152083e-03  3.0067125277645806e-02  6.8610321562242962e-02  2.3186432503797698e-02  -5.2699657996980792e-03  5.4866160521628668e-02  6.1989041459770473e-02  1.7897038541382346e-02  8.1218616671194982e-02  1.4525500325417783e-02  6.7194066277671168e-03  1.3052240135735027e-01  3.9456493309984936e-02  2.0998026285315170e-02  1.4953455501441353e-02  9.2022089007433916e-02  9.4411362272869462e-02  9.0668287826343383e-02  9.2120960810817096e-02  -1.3154853053808081e-02  -8.4640745993408359e-03  4.3502983085510821e-03  -1.6376840035664791e-02  -8.9546909960824261e-03  -3.0091614647021108e-03  -1.3731345520189430e-02  7.1755075250915200e-03  -1.3592519417525801e-02  1.0218088875721892e-01  1.4608027657005227e-02  2.4371212463556835e-02  5.7611783794876865e-03  3.0133237300132023e-03  6.6534083133578101e-02  -1.4231900710744639e-02  1.1701926454298757e-01  1.1797125232258573e-01  -2.8061715979807826e-03  -6.4941522402663261e-04  -1.0529171915480237e-02  8.7707400983163160e-03  2.7784145886389142e-02  1.2510768698068466e-02  1.2251354105285257e-01  2.0022920512644208e-02  6.8628386482444976e-03  7.2646795284033476e-03  -2.4719291652995894e-03  -3.5143353594345246e-03  -9.5228681029951214e-03  -1.1573832499583242e-02  -1.1247368469316388e-02  -7.8341536730667845e-03  1.7329668140061449e-01  1.1278899395593024e-01  -3.9259804088446646e-03  -1.0041237727339008e-02  -4.6355099005770950e-03  -1.2709578960322140e-02  -1.6598847918674536e-02  -1.6946051031611009e-02  1.6484910543405623e-01  8.2696120432654134e-05  -2.1691151452664700e-03  -1.7290877847999486e-02  -1.8683640024874583e-02  1.9246805802716460e-01  1.5977145928974636e-03  -3.9147283394024273e-03  -1.8260152975110088e-02  1.8958582824806053e-01  1.7089584665374566e-01  1.6614041095441426e-01  -6.3628654658530190e-03  1.0456717867252097e-02  1.7373915460300645e-02  3.7918590002619956e-03  3.4116999137058762e-02  2.3936929014399474e-02  1.0300721908129584e-02  1.4101874078084095e-02  2.9237267268054968e-02  1.6619092483160215e-02  3.2462284165956694e-02  8.6084174871128127e-02  1.8045538819804283e-02  6.3163111203629069e-03  1.4780721090621274e-01  1.7190555379465461e-01  1.7616679165090332e-01  1.8056498890002864e-01  -1.6239072006195447e-02  -1.7683125953453002e-02  -5.8390900812829898e-03  -9.0271352851396224e-03  -9.8726654366349184e-03  -8.3091195764995740e-03  -1.1265782262818607e-02  -1.2794881761245087e-02  -1.4371284726050614e-02  3.0511001596465921e-02  1.6551883196395728e-01  1.5705185885745229e-01  1.5807532338840488e-01  1.3969511120981254e-01  1.7892941295562106e-01  1.5430834841648569e-01  4.9061031508393485e-02  5.2131711130340368e-02  -3.2083598872097302e-03  -6.0889836470449134e-03  1.5600956370820354e-03  -3.1317561400776195e-03  5.4254620710731619e-03  -3.2622188390816662e-04  7.3972163802360196e-03  -1.3249948837388992e-02  -4.4927744608740496e-03  1.6358252979986825e-02  5.8777549944290632e-03  3.1505560707336998e-03  -1.5811634621762393e-02  2.1628307657822303e-02  9.2998133546474994e-03  2.2894655772477183e-02  8.5326113519475742e-03  1.7593316668790743e-02  6.6240526501846258e-03  1.2687965195503978e-02  2.7073901784912646e-02  1.9063938684821626e-02  6.6759949479944045e-03  1.0637547142519795e-02  1.2904068403233962e-03  3.0678909539338063e-03  1.4273000326143738e-02  3.7448800722134101e-03  -4.7953558271597021e-03  -5.0831814991837256e-03  -1.0038903716617141e-02  -1.1832097338838606e-02  -5.5449905040517019e-03  -1.2885020168826705e-02  -6.0073785854420723e-03  -1.3147691230928866e-02  -1.6847913287958930e-02  -6.3496983235670143e-03  -1.2585278458596650e-02  -6.4923209910704585e-03  4.0824081288316555e-03  -1.3738811653109124e-02  -1.1159660783622648e-02  -6.3306995460580507e-03  -1.4493307615089239e-02  4.7326979995845793e-02  1.4181459774231844e-01  1.5814359625101129e-01  9.6996849671486139e-04  7.5332788733527773e-03  6.5728094278275182e-04  1.2610741818975743e-01  1.7369656155249080e-01  1.6583376392091734e-01  -2.0408067076183940e-03  -3.5231916354259128e-04  4.2732234912183496e-04  7.2197124691349368e-02  7.3977206310235813e-02  -1.4724899825611946e-02  1.8647622057419509e-02  1.7160765740034736e-01  -1.7255230654509800e-02  -1.6619913045734964e-02  -1.5638616255980148e-02  9.0622818315745277e-04  1.4605030739453870e-01  1.5832303551518398e-01  1.6792777320570319e-02  -1.7554785885038181e-02  -1.7528421663512404e-02  1.3169403429999541e-01  1.2904485853227290e-01  -7.0726813172721284e-04  -5.8511374865174671e-03  -1.7525167425499991e-02  -1.7670553021089073e-02  -1.1841177448794753e-02  6.1161228494905802e-03  4.2766705670704399e-03  3.9930661286410544e-03  -6.0070511245440186e-03  4.8619470725103295e-03  -1.6628266046766964e-02  -2.1497223925038855e-03  -7.0693399779194997e-03  -8.6993157514426833e-03  -6.0114127973263992e-03  -1.8297792138066279e-03  -7.4057915507391540e-03  -4.2470605692024339e-03  -6.5423818595130197e-03  5.2872965419893295e-02  2.0759027789017050e-03  -2.5520901880366096e-03  2.0618999210398434e-02  1.2323528489720104e-01  1.9017686733039047e-03  -1.1884703991124290e-02  -3.3123792516995357e-04  1.2664386047674552e-03  1.2712699693611348e-01  1.4468468509926172e-01  1.1949013053340039e-01  -2.4482516591498400e-03  2.8557542751134106e-03  -1.1591801339767853e-03  -4.5578316022990336e-03  2.0337012116404055e-01  1.7806811571824618e-01  1.8011804292918313e-01  1.5624843801173635e-01  1.5627391186489595e-01  1.6888312927313007e-01  1.7497553860279771e-01  1.4811407991150960e-01  1.3065868761253230e-01  1.6437230009995488e-01  1.3948199533845732e-01  1.5332159278062349e-02  3.9570365332341935e-02  4.5487683803737897e-02  -1.5501249506693952e-02  -1.4315580049984728e-02  -6.1685308451032645e-03  1.3319339441112246e-01  -1.4783200249378682e-02  -1.3606518557745979e-02  -7.6139904911414914e-03  2.0242894160310496e-01  1.7528168695863863e-01  1.9393003814261864e-01  1.6800527534026194e-01  1.5027939197832996e-01  1.4257222264176878e-01  1.5743370525122896e-01  1.2981309906910574e-01  1.4122822649602951e-01  1.1212785944679234e-01  1.2409705290862982e-01  1.6810590175239698e-01  1.0299859964901491e-01  1.2216106946954483e-01  6.9767494629501159e-02  1.9999753150667279e-01  1.3762232045346764e-01  2.0274346922091982e-01  -1.0276088896075963e-02  -1.0649209928941125e-02  -1.4884779299597379e-02  -1.5552074092407385e-02  2.0272567710913042e-01  1.5347460054720913e-01  3.0646449788266437e-02  -2.0723544593035724e-03  9.1195896583225800e-02  5.6048076249249817e-02  2.5632494919271338e-02  7.5349567614901511e-02  7.0008514933208060e-02  8.6213924445285667e-02  9.7001579360810913e-02  1.2889905780601341e-01  1.3161379900680531e-01  4.3096193405464993e-02  5.6010106301348624e-02  4.2512782512531627e-02  -4.7613721016026072e-03  -3.9294938736391932e-03  3.3555329119663024e-02  -1.4060728232751346e-02  -1.2751351895993088e-02  9.1705274719880908e-02  8.6296942615037758e-02  1.0552346843107080e-01  8.7171895341012787e-02  6.7200504231512151e-02  -1.7780775266063324e-03  -3.7934671021463717e-03  -5.8364481751709456e-03  -3.7878259920435422e-03  -1.7199673502729443e-03  1.7061401535694326e-01  2.5326310769237938e-03  4.6144824162767705e-03  1.9104429066182555e-02  1.5852657482307454e-02  6.1549666893598864e-02  7.0279221620534432e-02  9.6841355580195992e-02  -3.6075154764931539e-03  1.0230430913017290e-01  -9.3769886882073793e-03  -1.5134290638306777e-02  1.1725099578735132e-01  4.3989744143900222e-03  -6.9199766600619933e-03  -1.2505441817083242e-02  6.9097858655987276e-02  -7.6255123814632916e-03  -7.1986983608269247e-03  1.0153432854475641e-01  -1.1574547497765604e-02  6.2275189784486160e-03  -1.6607753790553335e-03  -1.7737017135003614e-03  -3.9928399573669070e-04  -3.7216838556323193e-03  -5.6326897821113078e-03  -8.2369771139446258e-03  -4.9238414227865748e-03  -8.3482830561283257e-03  1.8375223733744001e-01  -3.9826691027843829e-03  -6.0642185501672786e-03  -9.5281645299663750e-03  -7.6998831930923809e-03  -1.3001283089298215e-02  -9.3315322246095775e-03  5.4654344653199106e-02  3.3174363211731561e-02  -1.0138301169199705e-02  -1.4036755867011199e-02  -1.7161456240917656e-02  -1.3921832439271925e-02  -1.6309783282979134e-02  -1.0137629976794640e-02  -2.6730819874821884e-03  -3.3247080827121626e-03  -7.3664757664821745e-03  -2.3595541188665757e-03  -4.7483363024566645e-03  -7.5943296902575598e-03  1.5039634830871851e-01  -9.3127565869221933e-03  2.0522285990783806e-01  1.5281287289789921e-03  1.4700583879871926e-01  -8.1020552570099311e-03  1.3789023334949516e-01  -5.0799685016824497e-03  1.3890787862705917e-01  -9.7513455018191954e-03  -1.5921578996681760e-02  1.8163374592744327e-01  -7.8456313811662796e-03  1.0315698816735556e-01  -2.4351432647862874e-03  1.1012012561209898e-02  -1.4623214000484521e-02  -1.3025147416879665e-02  -1.1818422164655163e-02  1.6443651293422727e-02  6.9478488206844982e-03  4.4349721669717941e-06  3.2665417996658327e-02  1.7548192641305697e-02  1.5326389909578286e-01  4.5559116875144336e-02  1.8220548960780472e-02  9.9129790008990012e-02  7.7215984067046953e-02  1.8287199585697000e-01  4.7009824024478404e-02  -1.4280901447283539e-02  3.5706030925700058e-02  8.3949626014544736e-03  -7.0941267506250683e-03  6.3668820712046090e-02  8.7192498136031901e-03  1.0354067500280917e-01  3.7486817228779140e-02  -1.7291777450810054e-02  1.0164722629892112e-01  9.6805401096503846e-02  -1.5320748993342345e-03  7.9984051548290542e-03  3.1582773456816961e-02  -9.1501066532671659e-03  1.3048708417980049e-02  2.6735349112587785e-02  9.7065996646178258e-03  1.5325079185111104e-02  1.7207693279801341e-02  -1.3880387668911373e-02  -1.6095506199509106e-02  -1.6445768325513456e-02  -1.5276912753082367e-02  -1.4889102259514973e-03  -9.6364022923258168e-03  1.0351781712429772e-02  1.1607889757138443e-01  2.1811582944179765e-02  7.1972877064088558e-02  -3.9692127709392323e-03  1.6150465472160081e-02  5.4805955375185128e-03  3.2716960912342122e-02  7.6841425887175838e-02  8.3523223431409524e-04  -8.6684610543322563e-03  3.9385027766969040e-02  5.5999720842721101e-03  3.1810772690977762e-02  6.2258827784834932e-03  -7.9556790355695597e-03  1.8253004891467201e-01  2.2150406556792963e-02  9.4396045238533284e-04  3.7214219704768188e-02  -8.9814651528985785e-03  4.7157538179126039e-02  1.8115309916287941e-02  3.7973638891236484e-02  1.5438349576378058e-01  -1.3260386601107394e-03  -1.7604262812586743e-02  -2.8375776392651621e-03  -1.0154246255037504e-02  1.5619047415284046e-01  5.4108988605577916e-03  9.3570862410608330e-02  3.7848699906045793e-02  -1.4345250546417981e-02  2.1167056663332273e-03  1.2361439090126412e-02  1.2008102325975348e-01  3.3120401415490539e-02  -1.1084771048645390e-02  -1.7111517262047796e-02  1.4831057221384480e-01  -1.3400394521334454e-02  1.2917533525249852e-01  -1.0006494179799987e-02  3.3587593310815497e-02  1.4828571701077339e-01  -1.3864043290920256e-02  -1.7747012032448540e-02  -6.4870422768798799e-04  1.5035742636336777e-01  -1.2905705918122710e-02  1.3426010227864937e-02  4.5593909456246727e-04  -2.6417801593740880e-03  -7.6429462212269711e-03  -1.7513304332133085e-03  1.8905037692522022e-02  -1.1657246956500462e-03  1.8946828053981923e-01  9.4016603733478588e-02  -1.2