<?xml version="1.0"?>
<VTKFile type="UnstructuredGrid"  version="0.1"  >
<UnstructuredGrid>
<Piece  NumberOfPoints="1251" NumberOfCells="2404">
<Points>
<DataArray  type="Float64"  NumberOfComponents="3"  format="ascii">0 0 0  0 1 0  1 1 0  1 0 0  1.1 -0.1 0  -0.1 -0.1 0  1.1 1.1 0  -0.1 1.1 0  0.5001399789842467 0.500209771354431 0  0.2543863289514484 0.5426795120805701 0  0 0.9499999999997918 0  0 0.8999999999995836 0  0 0.8499999999996529 0  0 0.7999999999999998 0  0 0.7500000000003466 0  0 0.7000000000006934 0  0 0.6500000000010401 0  0 0.6000000000013869 0  0 0.5500000000017335 0  0 0.5000000000020587 0  0 0.4500000000018723 0  0 0.4000000000016644 0  0 0.3500000000014564 0  0 0.3000000000012483 0  0 0.2500000000010403 0  0 0.2000000000008322 0  0 0.1500000000006241 0  0 0.100000000000416 0  0 0.05000000000020799 0  0.04999999999989965 0 0  0.09999999999981467 0 0  0.1499999999997036 0 0  0.1999999999995579 0 0  0.2499999999994121 0 0  0.2999999999992664 0 0  0.3499999999991206 0 0  0.3999999999989749 0 0  0.4499999999988292 0 0  0.4999999999986943 0 0  0.5499999999988151 0 0  0.5999999999989468 0 0  0.6499999999990784 0 0  0.69999999999921 0 0  0.7499999999993417 0 0  0.7999999999994734 0 0  0.8499999999996051 0 0  0.8999999999997368 0 0  0.9499999999998684 0 0  1 0.04999999999989965 0  1 0.09999999999981467 0  1 0.1499999999997036 0  1 0.1999999999995579 0  1 0.2499999999994121 0  1 0.2999999999992664 0  1 0.3499999999991206 0  1 0.3999999999989749 0  1 0.4499999999988292 0  1 0.4999999999986943 0  1 0.5499999999988151 0  1 0.5999999999989468 0  1 0.6499999999990784 0  1 0.69999999999921 0  1 0.7499999999993417 0  1 0.7999999999994734 0  1 0.8499999999996051 0  1 0.8999999999997368 0  1 0.9499999999998684 0  0.9499999999997918 1 0  0.8999999999995836 1 0  0.8499999999996529 1 0  0.7999999999999998 1 0  0.7500000000003466 1 0  0.7000000000006934 1 0  0.6500000000010401 1 0  0.6000000000013869 1 0  0.5500000000017335 1 0  0.5000000000020587 1 0  0.4500000000018723 1 0  0.4000000000016644 1 0  0.3500000000014564 1 0  0.3000000000012483 1 0  0.2500000000010403 1 0  0.2000000000008322 1 0  0.1500000000006241 1 0  0.100000000000416 1 0  0.05000000000020799 1 0  -0.1 1.05000000000004 0  -0.1 1.000000000000079 0  -0.1 0.9500000000001624 0  -0.1 0.9000000000003032 0  -0.1 0.850000000000444 0  -0.1 0.8000000000005848 0  -0.1 0.7500000000007256 0  -0.1 0.7000000000008665 0  -0.1 0.6500000000010508 0  -0.1 0.6000000000012352 0  -0.1 0.5500000000014196 0  -0.1 0.500000000001539 0  -0.1 0.4500000000014195 0  -0.1 0.4000000000013 0  -0.1 0.3500000000011588 0  -0.1 0.3000000000010178 0  -0.1 0.2500000000008986 0  -0.1 0.2000000000007579 0  -0.1 0.1500000000006174 0  -0.1 0.1000000000005272 0  -0.1 0.05000000000040083 0  -0.1 2.671196597248127e-13 0  -0.1 -0.0499999999998666 0  -0.0500000000000906 -0.1 0  -1.730560139634463e-13 -0.1 0  0.04999999999975802 -0.1 0  0.09999999999961506 -0.1 0  0.1499999999994613 -0.1 0  0.199999999999302 -0.1 0  0.2499999999991446 -0.1 0  0.2999999999990088 -0.1 0  0.3499999999988296 -0.1 0  0.3999999999986936 -0.1 0  0.4499999999985143 -0.1 0  0.4999999999984002 -0.1 0  0.5499999999985247 -0.1 0  0.5999999999986493 -0.1 0  0.6499999999987955 -0.1 0  0.6999999999989417 -0.1 0  0.7499999999990659 -0.1 0  0.7999999999992116 -0.1 0  0.8499999999993573 -0.1 0  0.8999999999994526 -0.1 0  0.949999999999584 -0.1 0  0.9999999999997226 -0.1 0  1.049999999999861 -0.1 0  1.1 -0.0500000000000906 0  1.1 -1.730560139634463e-13 0  1.1 0.04999999999975802 0  1.1 0.09999999999961506 0  1.1 0.1499999999994613 0  1.1 0.199999999999302 0  1.1 0.2499999999991446 0  1.1 0.2999999999990088 0  1.1 0.3499999999988296 0  1.1 0.3999999999986936 0  1.1 0.4499999999985143 0  1.1 0.4999999999984002 0  1.1 0.5499999999985247 0  1.1 0.5999999999986493 0  1.1 0.6499999999987955 0  1.1 0.6999999999989417 0  1.1 0.7499999999990659 0  1.1 0.7999999999992116 0  1.1 0.8499999999993573 0  1.1 0.8999999999994526 0  1.1 0.949999999999584 0  1.1 0.9999999999997226 0  1.1 1.049999999999861 0  1.05000000000004 1.1 0  1.000000000000079 1.1 0  0.9500000000001624 1.1 0  0.9000000000003032 1.1 0  0.850000000000444 1.1 0  0.8000000000005848 1.1 0  0.7500000000007256 1.1 0  0.7000000000008665 1.1 0  0.6500000000010508 1.1 0  0.6000000000012352 1.1 0  0.5500000000014196 1.1 0  0.500000000001539 1.1 0  0.4500000000014195 1.1 0  0.4000000000013 1.1 0  0.3500000000011588 1.1 0  0.3000000000010178 1.1 0  0.2500000000008986 1.1 0  0.2000000000007579 1.1 0  0.1500000000006174 1.1 0  0.1000000000005272 1.1 0  0.05000000000040083 1.1 0  2.671196597248127e-13 1.1 0  -0.0499999999998666 1.1 0  0.2596535676568584 0.5664076844823037 0  0.2671737409132044 0.5895781054069101 0  0.2769942699761202 0.6120761989522846 0  0.2890968575354191 0.6336076171842445 0  0.303416789911075 0.6538797160815767 0  0.319829011223024 0.6727438275663397 0  0.3380619662637825 0.6899511766292876 0  0.3580685476785302 0.7052402420731845 0  0.3796109723524824 0.7183888739715804 0  0.4024148464181676 0.7293705996106807 0  0.4261127390763623 0.7380315851314292 0  0.4505175131412777 0.7442232767620599 0  0.4754026817373435 0.7479316787682687 0  0.5004054427058233 0.7491032764478779 0  0.5253444690775922 0.7477912226508396 0  0.5499260064736629 0.7440366067972248 0  0.573860123405718 0.7378135302572109 0  0.5970344040045482 0.7292447890081168 0  0.6192002264963199 0.7185008431731778 0  0.6401689995440563 0.7056433645313683 0  0.6597339874992756 0.6907828039306506 0  0.6777502564266987 0.6740946514624816 0  0.6940490917737122 0.6557519567397622 0  0.7084911195640426 0.6358794842041381 0  0.7208998568152571 0.6146610179523067 0  0.7311781580076604 0.592293268266105 0  0.7392606613377584 0.5690022121936642 0  0.745038283404015 0.5449320915315128 0  0.7483758419082156 0.5203233415578404 0  0.7492378235328656 0.4954301731838003 0  0.7476512428114443 0.4704521879325791 0  0.7434810472036741 0.4456963133666226 0  0.7367434056497468 0.4214210462599342 0  0.7275625235007136 0.3978790328382887 0  0.7160812561239547 0.3753479125065746 0  0.7024008908587808 0.3541393191075539 0  0.6866429634860718 0.3344581416140995 0  0.6690780763253382 0.3165150950840114 0  0.6498924282620666 0.3003929901074068 0  0.6293929935380222 0.2865049852518187 0  0.6076525924283115 0.2748573088342621 0  0.584989156619001 0.2654846191886 0  0.5616628201029836 0.2583876920400849 0  0.537846698725264 0.2535598996183299 0  0.5136703154092037 0.2511175880094939 0  0.4893106752734912 0.2510655409556689 0  0.4649029320823729 0.253346729402564 0  0.4406886488996039 0.2580452187516925 0  0.4169544486763238 0.2652477537796366 0  0.3939435943958942 0.2748878959977668 0  0.3718749248758547 0.2868062887610248 0  0.3510273692479691 0.3010759470381711 0  0.3316150239841291 0.3173794828672854 0  0.3139022866481592 0.3354741652831859 0  0.297997770799174 0.3552049081108693 0  0.2842392032786091 0.3763171203167887 0  0.2727310057233983 0.3986174368040093 0  0.2634844943096935 0.4218540509179274 0  0.2568146814985412 0.4456507276235052 0  0.2526526275948154 0.4698780364817781 0  0.2509051828147547 0.4942400775054311 0  0.2514819411079775 0.5185588853488895 0  0.5458903741909158 0.2761019632545799 0  0.62626187138543 0.3110765617754052 0  0.4574696564861709 0.2749054245986143 0  0.2757354595123895 0.5496626810235389 0  0.3135528689189722 0.6337675340035519 0  0.2756838330869537 0.4623583305566214 0  0.6544299649295842 0.667023569715273 0  0.707672918422997 0.5947699693272811 0  0.7286327857836223 0.5084557207028911 0  0.579433434775426 0.7135934030624291 0  0.4887075141889455 0.7249076488797067 0  0.3100285937706416 0.3779604876311687 0  0.3710674061363902 0.3082355378911288 0  0.4220469372580243 0.712704723683845 0  0.6893426497743591 0.3752874571282421 0  0.7201645413918584 0.4393749988073623 0  0.3610214638894443 0.6795410709735882 0  0.3375781755277844 0.3410046067026598 0  0.4142491370447051 0.289180796976866 0  0.2883408325418048 0.4186573134576305 0  0.6615435936857783 0.3401985432008964 0  0.6845206133366236 0.6331992749885288 0  0.5335644389979329 0.7261501262342778 0  0.7225100255372645 0.5530403794902071 0  0.6198267237803452 0.6950654653368697 0  0.5020923236841764 0.2718749694770978 0  0.2713897722730952 0.5053875834552837 0  0.2897995164186255 0.5923466952620723 0  0.5916646633377803 0.2883529603295207 0  0.3807500242680585 0.6940881666388157 0  0.3846249041614324 0.6692217121358663 0  0.3642145088519179 0.653823539241871 0  0.3885101746949259 0.6435331207888207 0  0.365971755015173 0.6272658955990955 0  0.3950713644034876 0.6143677512793683 0  0.4193428212877845 0.6325203698958303 0  0.370064736379493 0.5989912582212299 0  0.3955522381027988 0.5836528308183265 0  0.3637691308221974 0.5642657441553099 0  0.4298973178279291 0.5954169076741713 0  0.452944130694936 0.6376003649566226 0  0.4786851932698707 0.5985221809680038 0  0.4887676834870752 0.6390630670374878 0  0.5203283558940098 0.6080075319745784 0  0.5503356925609733 0.6429387690479349 0  0.5657375322756955 0.6058765396630948 0  0.4116035595128772 0.547550268891393 0  0.3746425753415222 0.5200758969492717 0  0.5865424854599027 0.6355209066379471 0  0.6093435397997168 0.6096672794299204 0  0.5905152316937442 0.5714907496246776 0  0.6372801888669137 0.5767352710592484 0  0.6165390671713745 0.5391994312792167 0  0.6545706335846243 0.5429654729426826 0  0.6450442526268417 0.5043905858021204 0  0.6011503992185275 0.5016535270017629 0  0.6325692896254158 0.465868561897785 0  0.5852393326706158 0.4628221573614401 0  0.6181656828707141 0.4284122710920197 0  0.5702769019860638 0.4234170674960531 0  0.6019793026207495 0.390617598279114 0  0.5540432890675817 0.385541717148817 0  0.5816181995649788 0.3584035568784708 0  0.543958247713544 0.3478628625892293 0  0.5164613255829469 0.3780637375267088 0  0.5007798293258474 0.3400163568665182 0  0.4796100404574574 0.3691354027755175 0  0.4649263642752839 0.3379001076156659 0  0.4395724312936937 0.3583267494005432 0  0.45529739875233
[...]
<PointData  Scalars="u"> 
<DataArray  type="Float64"  Name="u"  format="ascii">0.0000000000000000e+00  0.0000000000000000e+00  0.0000000000000000e+00  0.0000000000000000e+00  0.0000000000000000e+00  0.0000000000000000e+00  0.0000000000000000e+00  0.0000000000000000e+00  7.2906686857806002e-01  4.0542827642001128e-01  0.0000000000000000e+00  0.0000000000000000e+00  0.0000000000000000e+00  0.0000000000000000e+00  0.0000000000000000e+00  0.0000000000000000e+00  0.0000000000000000e+00  0.0000000000000000e+00  0.0000000000000000e+00  0.0000000000000000e+00  0.0000000000000000e+00  0.0000000000000000e+00  0.0000000000000000e+00  0.0000000000000000e+00  0.0000000000000000e+00  0.0000000000000000e+00  0.0000000000000000e+00  0.0000000000000000e+00  0.0000000000000000e+00  0.0000000000000000e+00  0.0000000000000000e+00  0.0000000000000000e+00  0.0000000000000000e+00  0.0000000000000000e+00  0.0000000000000000e+00  0.0000000000000000e+00  0.0000000000000000e+00  0.0000000000000000e+00  0.0000000000000000e+00  0.0000000000000000e+00  0.0000000000000000e+00  0.0000000000000000e+00  0.0000000000000000e+00  0.0000000000000000e+00  0.0000000000000000e+00  0.0000000000000000e+00  0.0000000000000000e+00  0.0000000000000000e+00  0.0000000000000000e+00  0.0000000000000000e+00  0.0000000000000000e+00  0.0000000000000000e+00  0.0000000000000000e+00  0.0000000000000000e+00  0.0000000000000000e+00  0.0000000000000000e+00  0.0000000000000000e+00  0.0000000000000000e+00  0.0000000000000000e+00  0.0000000000000000e+00  0.0000000000000000e+00  0.0000000000000000e+00  0.0000000000000000e+00  0.0000000000000000e+00  0.0000000000000000e+00  0.0000000000000000e+00  0.0000000000000000e+00  0.0000000000000000e+00  0.0000000000000000e+00  0.0000000000000000e+00  0.0000000000000000e+00  0.0000000000000000e+00  0.0000000000000000e+00  0.0000000000000000e+00  0.0000000000000000e+00  0.0000000000000000e+00  0.0000000000000000e+00  0.0000000000000000e+00  0.0000000000000000e+00  0.0000000000000000e+00  0.0000000000000000e+00  0.0000000000000000e+00  0.0000000000000000e+00  0.0000000000000000e+00  0.0000000000000000e+00  0.0000000000000000e+00  0.0000000000000000e+00  0.0000000000000000e+00  0.0000000000000000e+00  0.0000000000000000e+00  0.0000000000000000e+00  0.0000000000000000e+00  0.0000000000000000e+00  0.0000000000000000e+00  0.0000000000000000e+00  0.0000000000000000e+00  0.0000000000000000e+00  0.0000000000000000e+00  0.0000000000000000e+00  0.0000000000000000e+00  0.0000000000000000e+00  0.0000000000000000e+00  0.0000000000000000e+00  0.0000000000000000e+00  0.0000000000000000e+00  0.0000000000000000e+00  0.0000000000000000e+00  0.0000000000000000e+00  0.0000000000000000e+00  0.0000000000000000e+00  0.0000000000000000e+00  0.0000000000000000e+00  0.0000000000000000e+00  0.0000000000000000e+00  0.0000000000000000e+00  0.0000000000000000e+00  0.0000000000000000e+00  0.0000000000000000e+00  0.0000000000000000e+00  0.0000000000000000e+00  0.0000000000000000e+00  0.0000000000000000e+00  0.0000000000000000e+00  0.0000000000000000e+00  0.0000000000000000e+00  0.0000000000000000e+00  0.0000000000000000e+00  0.0000000000000000e+00  0.0000000000000000e+00  0.0000000000000000e+00  0.0000000000000000e+00  0.0000000000000000e+00  0.0000000000000000e+00  0.0000000000000000e+00  0.0000000000000000e+00  0.0000000000000000e+00  0.0000000000000000e+00  0.0000000000000000e+00  0.0000000000000000e+00  0.0000000000000000e+00  0.0000000000000000e+00  0.0000000000000000e+00  0.0000000000000000e+00  0.0000000000000000e+00  0.0000000000000000e+00  0.0000000000000000e+00  0.0000000000000000e+00  0.0000000000000000e+00  0.0000000000000000e+00  0.0000000000000000e+00  0.0000000000000000e+00  0.0000000000000000e+00  0.0000000000000000e+00  0.0000000000000000e+00  0.0000000000000000e+00  0.0000000000000000e+00  0.0000000000000000e+00  0.0000000000000000e+00  0.0000000000000000e+00  0.0000000000000000e+00  0.0000000000000000e+00  0.0000000000000000e+00  0.0000000000000000e+00  0.0000000000000000e+00  0.0000000000000000e+00  0.0000000000000000e+00  0.0000000000000000e+00  0.0000000000000000e+00  0.0000000000000000e+00  0.0000000000000000e+00  0.0000000000000000e+00  0.0000000000000000e+00  0.0000000000000000e+00  0.0000000000000000e+00  0.0000000000000000e+00  0.0000000000000000e+00  0.0000000000000000e+00  0.0000000000000000e+00  4.0581972893319734e-01  4.0554457849711056e-01  4.0620657563593454e-01  4.0646670314273159e-01  4.0653544331500030e-01  4.0682958930722796e-01  4.0693348480663816e-01  4.0695382597859164e-01  4.0678846759840226e-01  4.0664309383909164e-01  4.0626107390416660e-01  4.0561570123145058e-01  4.0553718573021935e-01  4.0557933106161403e-01  4.0543030839846844e-01  4.0564678728702264e-01  4.0626990364439769e-01  4.0681022023841973e-01  4.0698353645856422e-01  4.0732827430154911e-01  4.0782224287851615e-01  4.0799218574171209e-01  4.0786455509253983e-01  4.0769257098387474e-01  4.0726065682782997e-01  4.0659535012902248e-01  4.0603818879537046e-01  4.0565734970213985e-01  4.0535162486396442e-01  4.0526533364108275e-01  4.0512030335063803e-01  4.0534409457380832e-01  4.0578225601381585e-01  4.0648878244569320e-01  4.0699819784118452e-01  4.0698653900208043e-01  4.0715920276739742e-01  4.0742397035401534e-01  4.0633549688532689e-01  4.0625455526480858e-01  4.0591413667023218e-01  4.0587436629694151e-01  4.0566840697990525e-01  4.0514143276609876e-01  4.0504868996966831e-01  4.0518553425158610e-01  4.0545894595845777e-01  4.0573848794300249e-01  4.0622308755664677e-01  4.0722828211192158e-01  4.0710643013857223e-01  4.0826224314202730e-01  4.0887652756424625e-01  4.0882157727721663e-01  4.0798975849867092e-01  4.0798224933080551e-01  4.0718891755515302e-01  4.0559837073806027e-01  4.0547583381681801e-01  4.0523669050950661e-01  4.0529761891546912e-01  4.0536690373944051e-01  4.6065640797880331e-01  4.6554115203209545e-01  4.5897964571032879e-01  4.5792754221803927e-01  4.5991787103229703e-01  4.6284775994336669e-01  4.6393350467126326e-01  4.6149763788265735e-01  4.5976772631703905e-01  4.6224230935911881e-01  4.6856114244993990e-01  4.6762806767116044e-01  4.5453154230472670e-01  4.6605784268741474e-01  4.6658166962649472e-01  4.6148482079559183e-01  4.6577934751241318e-01  4.6412699654817452e-01  4.6285504677806250e-01  4.6484553813423629e-01  4.6573489769637999e-01  4.6361549892745824e-01  4.6003038005138780e-01  4.5989945853434916e-01  4.6010618472897274e-01  4.6117947021974814e-01  4.5990971413646248e-01  4.5893501377666091e-01  4.5641828257079459e-01  4.6368211705035534e-01  5.1357682051139719e-01  5.1307415954853175e-01  5.5841193759726426e-01  5.5279387726501483e-01  6.0400246570932858e-01  6.0388196899996049e-01  5.9056812508696788e-01  6.3529191349171410e-01  6.1201156295833747e-01  6.5659779328186796e-01  6.1960466634178935e-01  6.7587379469452225e-01  6.2755155034725263e-01  6.6675011275001805e-01  6.0981345953101218e-01  6.4816093161595101e-01  6.7724446393503268e-01  6.4530337080904243e-01  5.9457253949398592e-01  6.0487810525372543e-01  6.5967543591430677e-01  6.0126095504113430e-01  6.5030356891719077e-01  5.9552210113759219e-01  6.1990444008160928e-01  6.7539311949990544e-01  6.3198532740832380e-01  6.8371157842113728e-01  6.3046988844545937e-01  6.7273891399208385e-01  6.1389769969660346e-01  6.4585564758791159e-01  5.9085029739853179e-01  5.9945299003165387e-01  6.5000253210492098e-01  5.9644131043135029e-01  6.3743217025578058e-01  5.8590877456983437e-01  6.0578624381572965e-01  6.6164199683963043e-01  6.2030484921797779e-01  6.7396950307080050e-01  6.2287855846683027e-01  5.9213877402223158e-01  6.0063744384163031e-01  6.8783630182556266e-01  5.9563412686348594e-01  5.8547545505738352e-01  5.8814279067023845e-01  5.7576519076754595e-01  6.1045206293415089e-01  5.6048440804653654e-01  5.3711489422596059e-01  5.6468869130607657e-01  5.3225806661836905e-01  5.5151627326072417e-01  5.6002021251579504e-01  5.5844143767540111e-01  5.7353017096000081e-01  5.3969268201950338e-01  5.5676070828921831e-01  5.5550071689958491e-01  5.6857246119078464e-01  5.5187277872112994e-01  6.9739881370463153e-01  5.8604828834916090e-01  5.4533522351620156e-01  5.3263643104705360e-01  5.5448874611118582e-01  5.3560246582504534e-01  5.2011973409561174e-01  5.3545039400965488e-01  5.0434219294474603e-01  5.3390353041070893e-01  5.4988745089085223e-01  5.1362898808382607e-01  5.3603751616498962e-01  5.4003412545900564e-01  6.9545704702712374e-01  5.2700831079764154e-01  5.4728498358393274e-01  5.4630034210554379e-01  5.1759044897907569e-01  5.6973511044837388e-01  5.3598047825321371e-01  5.2459708549512973e-01  5.6207322604033827e-01  5.2385417765971731e-01  5.0487029496127211e-01  5.0462781562287407e-01  5.0159256655504991e-01  5.0366275178131181e-01  5.9228551817237518e-01  5.5264751238506382e-01  5.1762516145894821e-01  6.4392981612965727e-01  7.1149050945784686e-01  4.9233431774340575e-01  7.1202693651183069e-01  6.8938267976720624e-01  5.2081891223086629e-01  4.9418988004176245e-01  6.9262556324544922e-01  6.6824431243026949e-01  5.6199639881345043e-01  4.6311688167638276e-01  4.6166064716230731e-01  5.1811919630652614e-01  4.6113544961663067e-01  4.6224131396872342e-01  4.9462497401297845e-01  5.0138753798707747e-01  4.6054663914060445e-01  4.6299316026904813e-01  4.6216412732022127e-01  4.5920712620186821e-01  4.7268396335324159e-01  4.6917610139070520e-01  4.6576713713827589e-01  5.1195794176752918e-01  5.1057227475231270e-01  5.0390175734200793e-01  5.0493922632157606e-01  5.0232101079284319e-01  5.5747938350228310e-01  4.6175173833399369e-01  5.1207936629693940e-01  4.6198237424146016e-01  5.0911043195425865e-01  4.6543337736641621e-01  4.6502077781847190e-01  4.6456497029810917e-01  5.0674445940880752e-01  5.3879219828727365e-01  4.6006812256349533e-01  5.1433326099249321e-01  4.6106741270092416e-01  5.1011174647852997e-01  5.1604149143014766e-01  4.6031910958348471e-01  4.6001029223952655e-01  4.6104270581345913e-01  5.0804862149838648e-01  7.1396641584487952e-01  4.5925597798965023e-01  7.1114239767437792e-01  4.6025912189274054e-01  5.0383462267531698e-01  4.5342006036463928e-01  4.5695453403371006e-01  4.6345873216742772e-01  5.0221932271633940e-01  5.5033288998605667e-01  6.9381963116363432e-01  7.1662621523473247e-01  5.0758592025085958e-01  4.5720077915927737e-01  4.5329078614651402e-01  5.0447415806418328e-01  4.5823373698363706e-01  6.8087583835565846e-01  5.4319238485943511e-01  5.3753748482663133e-01  5.4429424027326989e-01  4.5183351417201584e-01  5.0853278979095573e-01  5.0674152028571728e-01  4.9951366591470170e-01  5.0429512166349211e-01  5.0153613660960239e-01  5.7245852226044647e-01  5.1029179687442505e-01  5.4678427682657693e-01  5.0870698515534529e-01  5.0389232630782876e-01  5.0206494415168068e-01  5.4525742592963788e-01  5.1326613756082695e-01  5.0304778793107607e-01  4.9914244327909219e-01  5.0365563081820663e-01  5.4957971523141880e-01  7.1881473621477987e-01  4.9604470666071121e-01  7.1532661373513917e-01  5.5586420381239465e-01  4.4831944823997738e-01  5.5237720140698976e-01  4.4759196690312925e-01  5.7691347870769538e-01  5.6844764560279970e-01  5.8717284444246953e-01  5.3296734545233249e-01  5.0301959024348042e-01  5.7105070201122654e-01  5.7880972169580269e-01  5.8164763528864438e-01  4.9762470303033246e-01  5.6023632014995228e-01  5.4527715482772521e-01  5.3539337685676069e-01  5.0223796281933819e-01  4.4810158573152981e-01  5.4162941026552125e-01  5.6506379494272052e-01  4.9469872597439329e-01  4.9650807755819087e-01  4.9714916989218666e-01  5.5898144286267781e-01  4.9512487080416978e-01  5.7154629353758690e-01  5.4460703205304239e-01  5.6463008691118100e-01  4.9977900505075024e-01  5.6558387699324753e-01  5.7402290702543413e-01  5.3849726407563014e-01  5.6684799652773032e-01  4.9832687967947270e-01  5.7637973947643073e-01  5.6879367263215552e-01  6.0862052636724329e-01  5.0574040213962423e-01  3.5614665233052739e-01  3.5591749698713221e-01  3.5377768090819567e-01  3.5415181818073371e-01  3.5107747801963096e-01  3.5863586972052514e-01  3.4728984338301266e-01  3.5256925000731720e-01  3.5316489438689119e-01  3.5840004562645106e-01  3.4541522136504188e-01  3.4834411332175419e-01  3.5029472116437949e-01  3.5092011709582349e-01  3.4714756289291704e-01  3.4672956868294114e-01  3.4925586125719688e-01  1.9247285727038408e-02  3.5422371757506654e-01  2.0339418103394909e-02  1.9751641577044635e-02  2.0837696859574630e-02  2.0384879084845875e-02  2.0279000899338824e-02  3.4622750795243779e-01  2.0313601188465268e-02  3.4725316794701527e-01  3.5158419104779692e-01  1.9887549527362124e-02  3.4656519306518041e-01  3.5749200721851804e-01  3.4582705541280040e-01  3.5048021796894430e-01  4.4957484037498524e-02  4.3509812962911391e-02  3.8751298743264655e-02  4.3205797224815323e-02  4.8733484187087894e-02  5.0080292269904389e-02  4.7090132503928538e-02  4.2544136291922309e-02  5.3006125512527182e-02  4.6800810415312401e-02  4.9275226878517549e-02  5.3241251705827490e-02  5.7283045062770880e-03  6.7056865783328050e-03  5.8010448512909292e-03  5.0552207164860797e-03  4.6979101217911419e-03  4.7664724836068064e-03  4.7536533308276179e-03  6.7388151512412960e-03  3.4571439397993498e-01  2.9743107884412118e-01  2.9476303102327106e-01  2.5188839297920834e-01  2.5214718141324305e-01  2.4658387364701367e-01  2.0828589283727952e-01  2.1403019805692949e-01  1.6356679419171258e-01  1.6043206281167025e-01  2.0415531444356158e-01  1.5425650241754185e-01  2.0036524630908839e-01  1.4545248809905365e-01  1.7904413965095217e-01  1.3352816464155334e-01  1.6119409205674953e-01  1.1097872806104556e-01  1.3894552951473410e-01  9.6890554890692815e-02  1.1610010263205092e-01  1.6178491781566162e-01  1.3359570700248519e-01  1.8074179506914842e-01  1.4699376878466211e-01  7.7932436586980777e-02  2.0231801637675753e-01  1.5777685388142101e-01  1.1348285969141364e-01  1.0309987685561807e-01  2.0647727096700863e-01  1.6259584408912156e-01  2.1772996172079614e-01  1.6449352122275890e-01  2.1858832825591099e-01  1.6126198699050864e-01  2.0459867526022918e-01  2.1296587573048389e-01  6.2210944688910884e-02  4.6755153929795901e-02  1.6847550752202609e-01  5.8646202695629583e-02  2.0931369726295643e-01  1.1935297263012294e-01  1.5451562819554585e-01  2.0141268903740422e-01  1.2065996727937328e-01  1.4348008016889721e-01  1.7923998753544795e-01  1.2475376221616410e-01  1.5570002119652368e-01  2.1005320435754937e-01  1.9799176726331386e-01  1.3393303206054777e-01  1.6720888965727668e-01  2.2350348733916278e-01  1.9618724625982586e-01  1.4245268258248581e-01  1.6103343765535166e-01  1.1673673079357849e-01  1.3299081436999438e-01  1.8586710750435081e-01  1.4743099750035343e-01  1.9845156246201426e-01  1.6350760677170045e-01  1.1662709627635195e-01  1.2063454657180828e-01  1.6007070282272629e-01  1.2224503150312521e-01  1.5915784419018109e-01  8.3801303022982346e-02  1.1857302859149463e-01  1.6107509507906392e-01  1.0945819877350310e-01  1.4170975096624172e-01  1.9920346022340280e-01  9.1031905477659117e-02  2.6238088025916445e-01  9.4885097702420651e-02  1.2292320250335947e-01  1.7441477100578504e-01  1.5213598770685130e-01  2.1491781055573153e-01  1.8243830037014067e-01  1.2738061605819126e-01  1.5306700659346889e-01  2.0934795332223188e-01  1.8517809742169999e-01  7.4584825162080884e-02  9.3810010032181090e-02  2.3094893804603275e-01  7.9526205479606732e-02  2.5043716025861490e-01  2.5117644108126008e-01  2.3654376553008075e-01  1.9712981925656331e-01  2.5085021378696332e-01  2.1978299112111224e-01  1.5939933843536472e-01  1.7272444146314700e-01  2.2403169279781726e-01  1.8113778457620794e-01  2.3012403862320341e-01  1.9282808103016782e-01  1.4276763938780168e-01  1.4610569424979716e-01  1.8673109683650169e-01  1.4555692266211731e-01  1.8368863708654817e-01  1.4128671604024817e-01  1.7770680788896093e-01  1.3317512040088403e-01  1.6523982078729474e-01  1.2046891248966310e-01  1.4803494635599065e-01  9.3396092100641023e-02  8.1693495104408639e-02  1.0100675297991744e-01  6.0336663847534229e-02  1.9844681763718142e-01  1.7788135233423386e-01  1.2826722751546307e-01  1.5995862568823516e-01  1.0690113262400744e-01  2.2197239794675883e-01  1.2480959989283968e-01  1.7509431659508823e-01  1.4050752448238193e-01  1.9373304702576902e-01  1.5380561791091574e-01  2.3141623111000195e-01  7.0436030271767786e-02  2.1510362948549763e-01  1.6420210708975622e-01  4.9685060062280920e-02  2.1862836492806903e-01  1.7825702927325041e-01  2.2106367300419555e-01  1.7079409877630075e-01  2.1987439349043716e-01  1.6250171503714467e-01  2.0516327085965111e-01  1.5388101376343657e-01  1.9839158401390244e-01  1.4196028414035475e-01  1.7227377703533159e-01  1.2352265499502176e-01  1.5165383685531503e-01  1.0610231689532264e-01  1.2904618952766767e-01  1.7783177718967180e-01  1.5047806189685731e-01  1.0594081296098598e-01  1.2275090845692421e-01  8.3130166179606793e-02  9.5461824323077593e-02  1.3638688529869666e-01  1.0442642471126418e-01  1.4559950770524258e-01  1.0992043605484489e-01  1.5017796336569528e-01  1.7883109213735113e-01  6.1345362120483506e-02  1.0788451115013990e-01  1.5025453035825329e-01  1.9636689293811116e-01  2.0044618159638694e-01  1.4696657054284901e-01  1.8716971272030425e-01  1.3787195676065814e-01  1.7815985091790559e-01  1.2654437469057225e-01  2.0318102475675631e-01  5.0898244487131504e-02  2.3170666960668715e-01  7.6760286084601337e-02  3.4233240943181011e-02  2.2470556834449579e-01  3.3736092832083904e-02  8.0597611769116034e-02  4.1957936350456422e-02  1.2258614284321399e-01  2.3360556397519738e-01  2.3833518274419602e-01  2.4994661408415991e-01  7.6989286512206268e-02  1.1271238545770923e-01  1.1825721016488683e-01  2.5096182933928995e-01  8.6480451848900575e-02  2.8263750608040322e-01  2.5610673921232624e-01  2.8354706555840736e-01  2.6130741990399564e-01  2.3369197398682476e-01  2.4567067548633312e-01  2.4313940619142085e-01  7.1330200516662640e-02  2.5684977411777032e-01  1.2613397421199429e-01  2.7762844498833822e-01  3.0356255207483063e-01  2.7015257406808874e-01  1.7444155855383126e-01  3.4749098332800377e-02  2.1520698704939254e-02  2.5078984069081284e-01  2.8180385188766488e-01  2.6274577161070595e-01  1.1760130626870136e-01  1.1524971191677132e-01  2.9782384999016381e-01  2.6295063415732922e-01  2.6011119611361783e-01  2.6230305091999878e-01  2.6628524185832658e-01  2.6715884800581835e-01  2.8382629813603283e-01  2.5305059329862012e-01  2.7813721033294747e-01  3.1263187268084819e-01  2.7114996081823584e-01  2.7661072500822792e-01  2.5995314068638226e-01  7.7606962473385652e-02  2.3632518890296192e-01  2.5481185335250972e-01  2.8432634417246777e-01  3.0685614878975698e-01  2.8389800089415440e-01  2.4712790097265980e-01  9.8838991922979971e-02  3.1100583614171545e-01  2.7638950648247046e-01  9.6241100298414942e-02  1.0630711729254473e-01  7.6722575349182184e-02  2.5900126879902553e-02  4.7080591611207312e-02  5.6944153792078289e-02  6.7093560360225415e-02  4.6317071811009330e-02  2.9343824473247693e-01  2.8612906039446401e-01  2.8780389659497518e-01  2.9273675738609206e-01  2.5016521532360880e-01  2.9048953621045731e-01  2.6014587344376877e-01  3.0482973263449353e-01  2.4769946891838618e-01  2.8168449182642719e-01  2.2064357157771455e-01  2.7433616972831470e-01  3.5524745404399011e-01  3.1786989166066820e-01  3.5440986684583103e-01  2.4191452525138532e-02  3.4782267140287310e-01  2.9959761304728050e-01  2.9791896971258619e-01  2.5313418530497978e-01  9.2842850369490568e-02  3.4341878062091402e-01  2.9192897360615372e-01  3.2902320436233984e-01  2.7616182376187970e-01  7.9048637581066408e-02  2.9466843093360295e-01  2.2491452140573193e-01  2.8608044293810703e-01  3.4343898062469702e-01  2.9838972741130765e-01  2.9648459272487143e-01  3.4734228662163880e-01  3.4444549784812967e-01  2.9992237266827598e-01  2.9031796029073031e-01  3.4399286909119409e-01  2.5912434729674494e-01  3.0133070433927178e-01  2.9564720357167962e-01  3.4305636516677157e-01  2.9037108115114491e-01  3