<?xml version="1.0"?>
<VTKFile type="UnstructuredGrid"  version="0.1"  >
<UnstructuredGrid>
<Piece  NumberOfPoints="1251" NumberOfCells="2404">
<Points>
<DataArray  type="Float64"  NumberOfComponents="3"  format="ascii">0 0 0  0 1 0  1 1 0  1 0 0  1.1 -0.1 0  -0.1 -0.1 0  1.1 1.1 0  -0.1 1.1 0  0.5007356241115589 0.5010971891088892 0  0.2539552711339028 0.5435271529673639 0  0 0.9499999999997918 0  0 0.8999999999995836 0  0 0.8499999999996529 0  0 0.7999999999999998 0  0 0.7500000000003466 0  0 0.7000000000006934 0  0 0.6500000000010401 0  0 0.6000000000013869 0  0 0.5500000000017335 0  0 0.5000000000020587 0  0 0.4500000000018723 0  0 0.4000000000016644 0  0 0.3500000000014564 0  0 0.3000000000012483 0  0 0.2500000000010403 0  0 0.2000000000008322 0  0 0.1500000000006241 0  0 0.100000000000416 0  0 0.05000000000020799 0  0.04999999999989965 0 0  0.09999999999981467 0 0  0.1499999999997036 0 0  0.1999999999995579 0 0  0.2499999999994121 0 0  0.2999999999992664 0 0  0.3499999999991206 0 0  0.3999999999989749 0 0  0.4499999999988292 0 0  0.4999999999986943 0 0  0.5499999999988151 0 0  0.5999999999989468 0 0  0.6499999999990784 0 0  0.69999999999921 0 0  0.7499999999993417 0 0  0.7999999999994734 0 0  0.8499999999996051 0 0  0.8999999999997368 0 0  0.9499999999998684 0 0  1 0.04999999999989965 0  1 0.09999999999981467 0  1 0.1499999999997036 0  1 0.1999999999995579 0  1 0.2499999999994121 0  1 0.2999999999992664 0  1 0.3499999999991206 0  1 0.3999999999989749 0  1 0.4499999999988292 0  1 0.4999999999986943 0  1 0.5499999999988151 0  1 0.5999999999989468 0  1 0.6499999999990784 0  1 0.69999999999921 0  1 0.7499999999993417 0  1 0.7999999999994734 0  1 0.8499999999996051 0  1 0.8999999999997368 0  1 0.9499999999998684 0  0.9499999999997918 1 0  0.8999999999995836 1 0  0.8499999999996529 1 0  0.7999999999999998 1 0  0.7500000000003466 1 0  0.7000000000006934 1 0  0.6500000000010401 1 0  0.6000000000013869 1 0  0.5500000000017335 1 0  0.5000000000020587 1 0  0.4500000000018723 1 0  0.4000000000016644 1 0  0.3500000000014564 1 0  0.3000000000012483 1 0  0.2500000000010403 1 0  0.2000000000008322 1 0  0.1500000000006241 1 0  0.100000000000416 1 0  0.05000000000020799 1 0  -0.1 1.05000000000004 0  -0.1 1.000000000000079 0  -0.1 0.9500000000001624 0  -0.1 0.9000000000003032 0  -0.1 0.850000000000444 0  -0.1 0.8000000000005848 0  -0.1 0.7500000000007256 0  -0.1 0.7000000000008665 0  -0.1 0.6500000000010508 0  -0.1 0.6000000000012352 0  -0.1 0.5500000000014196 0  -0.1 0.500000000001539 0  -0.1 0.4500000000014195 0  -0.1 0.4000000000013 0  -0.1 0.3500000000011588 0  -0.1 0.3000000000010178 0  -0.1 0.2500000000008986 0  -0.1 0.2000000000007579 0  -0.1 0.1500000000006174 0  -0.1 0.1000000000005272 0  -0.1 0.05000000000040083 0  -0.1 2.671196597248127e-13 0  -0.1 -0.0499999999998666 0  -0.0500000000000906 -0.1 0  -1.730560139634463e-13 -0.1 0  0.04999999999975802 -0.1 0  0.09999999999961506 -0.1 0  0.1499999999994613 -0.1 0  0.199999999999302 -0.1 0  0.2499999999991446 -0.1 0  0.2999999999990088 -0.1 0  0.3499999999988296 -0.1 0  0.3999999999986936 -0.1 0  0.4499999999985143 -0.1 0  0.4999999999984002 -0.1 0  0.5499999999985247 -0.1 0  0.5999999999986493 -0.1 0  0.6499999999987955 -0.1 0  0.6999999999989417 -0.1 0  0.7499999999990659 -0.1 0  0.7999999999992116 -0.1 0  0.8499999999993573 -0.1 0  0.8999999999994526 -0.1 0  0.949999999999584 -0.1 0  0.9999999999997226 -0.1 0  1.049999999999861 -0.1 0  1.1 -0.0500000000000906 0  1.1 -1.730560139634463e-13 0  1.1 0.04999999999975802 0  1.1 0.09999999999961506 0  1.1 0.1499999999994613 0  1.1 0.199999999999302 0  1.1 0.2499999999991446 0  1.1 0.2999999999990088 0  1.1 0.3499999999988296 0  1.1 0.3999999999986936 0  1.1 0.4499999999985143 0  1.1 0.4999999999984002 0  1.1 0.5499999999985247 0  1.1 0.5999999999986493 0  1.1 0.6499999999987955 0  1.1 0.6999999999989417 0  1.1 0.7499999999990659 0  1.1 0.7999999999992116 0  1.1 0.8499999999993573 0  1.1 0.8999999999994526 0  1.1 0.949999999999584 0  1.1 0.9999999999997226 0  1.1 1.049999999999861 0  1.05000000000004 1.1 0  1.000000000000079 1.1 0  0.9500000000001624 1.1 0  0.9000000000003032 1.1 0  0.850000000000444 1.1 0  0.8000000000005848 1.1 0  0.7500000000007256 1.1 0  0.7000000000008665 1.1 0  0.6500000000010508 1.1 0  0.6000000000012352 1.1 0  0.5500000000014196 1.1 0  0.500000000001539 1.1 0  0.4500000000014195 1.1 0  0.4000000000013 1.1 0  0.3500000000011588 1.1 0  0.3000000000010178 1.1 0  0.2500000000008986 1.1 0  0.2000000000007579 1.1 0  0.1500000000006174 1.1 0  0.1000000000005272 1.1 0  0.05000000000040083 1.1 0  2.671196597248127e-13 1.1 0  -0.0499999999998666 1.1 0  0.2592209472863652 0.5673346198977138 0  0.2668632495583585 0.5905382264988441 0  0.2768795566548443 0.6129974314548418 0  0.2892065545868087 0.6344274393091843 0  0.3037363885187778 0.6545621154106444 0  0.3203110474300462 0.6732700964871303 0  0.3386787566726349 0.6903126485370968 0  0.3587554316630587 0.7054742922793144 0  0.3803078994212521 0.7185631396637709 0  0.4030833285787933 0.7295383559061206 0  0.426747000099498 0.7382497310407062 0  0.4511159939837057 0.7445579423583161 0  0.4759698120800971 0.7484493855602482 0  0.5009744421753316 0.7498504222154949 0  0.5259468082739827 0.7487635753101017 0  0.5505969647904153 0.7452138916017517 0  0.5746341680500461 0.7391665075489002 0  0.5979182640712277 0.7307212513012856 0  0.6201873878319893 0.7200271925968197 0  0.6412484974451333 0.7071758280178163 0  0.6608959248006921 0.6922940517071235 0  0.6789720730447626 0.6755535649736536 0  0.6953028075874065 0.6571301217248748 0  0.7097438560604494 0.6371610772386562 0  0.7221229012227905 0.6158381284074974 0  0.7323332235675294 0.5933625900630375 0  0.7402839929549846 0.5699597060064937 0  0.7458791261926103 0.5457972009117508 0  0.7490107633966605 0.5211252744123593 0  0.7496505061435229 0.496201849216646 0  0.7478174619032323 0.4712356499734102 0  0.7434585224471966 0.4465177715688169 0  0.7366039977848777 0.4222939870000938 0  0.7273775860553515 0.3988030326118204 0  0.7159165157889424 0.3763031307058073 0  0.7023240394653678 0.3550802167812312 0  0.6867192603447551 0.3353273392606138 0  0.6693344059857105 0.3172536710339675 0  0.6503108395778326 0.3009842874062729 0  0.62993997698777 0.286894442788705 0  0.6082985444071507 0.2750278925117252 0  0.5856761780769564 0.2654638098057479 0  0.5623228944012845 0.2582602424414283 0  0.5384334045205473 0.2534551527112955 0  0.5141816109899769 0.2511201336797296 0  0.4897693536124508 0.2512563392718141 0  0.4653623029606904 0.2538076301564823 0  0.4412012222739691 0.2587914772323588 0  0.4175509285171737 0.266225023656953 0  0.3946376245560734 0.2760219373624986 0  0.3726846858784733 0.2880581891242309 0  0.3519378848363423 0.3023543803417775 0  0.3326035942961006 0.3186274205713035 0  0.3149275000070211 0.3366538732290413 0  0.2990268840318557 0.3562882072663704 0  0.2852091854628535 0.3772930453962522 0  0.2735692091534814 0.399475405029148 0  0.2641576806490518 0.4226107300678314 0  0.2572393838750714 0.4463434296082299 0  0.2527856939837257 0.4705425551826687 0  0.2507622932849093 0.4949305539328225 0  0.25114341182271 0.5193196141562445 0  0.5464985609816112 0.2761283352686122 0  0.6266673329380453 0.3115290905960796 0  0.4580666599123249 0.2754917114020234 0  0.2754397604479418 0.5505307622602742 0  0.3137542691069475 0.6344397202205339 0  0.2759508500990216 0.4631721829166273 0  0.65556501998509 0.6684437105027885 0  0.7087678566610413 0.5959236743224599 0  0.7291680178457417 0.5093575512084396 0  0.5803116329631626 0.7149189099121784 0  0.489386934402898 0.7255812930950195 0  0.3109196840484862 0.3790174082021396 0  0.3719300520093188 0.3094217447443202 0  0.4227158982568233 0.7130063473090917 0  0.6893120853227063 0.3761787034213808 0  0.7201919133788659 0.4402792761003851 0  0.3615944520617548 0.6798890970293411 0  0.338522927333608 0.3421764865074152 0  0.414963169721948 0.2901453826040513 0  0.289005190562193 0.4195652456770837 0  0.6617073555661079 0.3409288899848354 0  0.6856887700480387 0.634508476133639 0  0.5342929830155376 0.7271778268330368 0  0.7233841615011213 0.5540415816026337 0  0.6208512141329692 0.6965096353315537 0  0.5026623240300166 0.2720720160160291 0  0.2712646115460352 0.5061961373440984 0  0.2896533505192153 0.5931972660159858 0  0.5922391181117929 0.2885148443769883 0  0.3813908899726693 0.6943681284158862 0  0.3851933938380409 0.6696074727715475 0  0.3646807145727605 0.6542752773663854 0  0.3890082865916668 0.644020749545767 0  0.36634186259555 0.6278160241598023 0  0.3955144328446071 0.6149615835710892 0  0.4199034840133777 0.6330886193028192 0  0.3703720069261024 0.5996350692260828 0  0.3959448413006576 0.5843413236016985 0  0.3640009221944367 0.5650158582465196 0  0.430426740257806 0.5961094038169171 0  0.4536054124398898 0.6382484882224042 0  0.4793544658594163 0.5993204834043785 0  0.4895099906440423 0.6398483475754211 0  0.5210974092612912 0.6089365737635686 0  0.5512032714221083 0.6439973543452281 0  0.566580713699548 0.6069585057250023 0  0.412033401799398 0.5483406358035912 0  0.3749610842016792 0.5209293183412043 0  0.5874720861336828 0.6367080732690862 0  0.6102706444384035 0.6108677345145201 0  0.5913118471863072 0.5725906991298216 0  0.6381521540591808 0.5779101422911529 0  0.6172464116983336 0.5402860317250954 0  0.6553116817881662 0.5440800500167497 0  0.6455934478531125 0.5054338328490203 0  0.6017211486674172 0.5026547429036649 0  0.6329678113539836 0.4668268728391483 0  0.5857186155246062 0.4637216687192483 0  0.6184882021369108 0.4292588116879016 0  0.5707244708023603 0.42419241783234 0  0.6023089321984008 0.3913118712904066 0  0.5545227200850958 0.3861698485690502 0  0.5820313108437339 0.3589280742756348 0  0.5444905869726298 0.3483215309778016 0  0.5170399155779135 0.37869831276868 0  0.5014158267036477 0.3405420359260872 0  0.4802718678468708 0.3698344587319577 0  0.4656292635720345 0.3385805287922506 0  0.4403102062170657 0.3591630888274088 0  0.45596815981
[...]
<PointData  Scalars="u"> 
<DataArray  type="Float64"  Name="u"  format="ascii">0.0000000000000000e+00  0.0000000000000000e+00  0.0000000000000000e+00  0.0000000000000000e+00  0.0000000000000000e+00  0.0000000000000000e+00  0.0000000000000000e+00  0.0000000000000000e+00  7.2968110770032635e-01  4.0431609993355067e-01  0.0000000000000000e+00  0.0000000000000000e+00  0.0000000000000000e+00  0.0000000000000000e+00  0.0000000000000000e+00  0.0000000000000000e+00  0.0000000000000000e+00  0.0000000000000000e+00  0.0000000000000000e+00  0.0000000000000000e+00  0.0000000000000000e+00  0.0000000000000000e+00  0.0000000000000000e+00  0.0000000000000000e+00  0.0000000000000000e+00  0.0000000000000000e+00  0.0000000000000000e+00  0.0000000000000000e+00  0.0000000000000000e+00  0.0000000000000000e+00  0.0000000000000000e+00  0.0000000000000000e+00  0.0000000000000000e+00  0.0000000000000000e+00  0.0000000000000000e+00  0.0000000000000000e+00  0.0000000000000000e+00  0.0000000000000000e+00  0.0000000000000000e+00  0.0000000000000000e+00  0.0000000000000000e+00  0.0000000000000000e+00  0.0000000000000000e+00  0.0000000000000000e+00  0.0000000000000000e+00  0.0000000000000000e+00  0.0000000000000000e+00  0.0000000000000000e+00  0.0000000000000000e+00  0.0000000000000000e+00  0.0000000000000000e+00  0.0000000000000000e+00  0.0000000000000000e+00  0.0000000000000000e+00  0.0000000000000000e+00  0.0000000000000000e+00  0.0000000000000000e+00  0.0000000000000000e+00  0.0000000000000000e+00  0.0000000000000000e+00  0.0000000000000000e+00  0.0000000000000000e+00  0.0000000000000000e+00  0.0000000000000000e+00  0.0000000000000000e+00  0.0000000000000000e+00  0.0000000000000000e+00  0.0000000000000000e+00  0.0000000000000000e+00  0.0000000000000000e+00  0.0000000000000000e+00  0.0000000000000000e+00  0.0000000000000000e+00  0.0000000000000000e+00  0.0000000000000000e+00  0.0000000000000000e+00  0.0000000000000000e+00  0.0000000000000000e+00  0.0000000000000000e+00  0.0000000000000000e+00  0.0000000000000000e+00  0.0000000000000000e+00  0.0000000000000000e+00  0.0000000000000000e+00  0.0000000000000000e+00  0.0000000000000000e+00  0.0000000000000000e+00  0.0000000000000000e+00  0.0000000000000000e+00  0.0000000000000000e+00  0.0000000000000000e+00  0.0000000000000000e+00  0.0000000000000000e+00  0.0000000000000000e+00  0.0000000000000000e+00  0.0000000000000000e+00  0.0000000000000000e+00  0.0000000000000000e+00  0.0000000000000000e+00  0.0000000000000000e+00  0.0000000000000000e+00  0.0000000000000000e+00  0.0000000000000000e+00  0.0000000000000000e+00  0.0000000000000000e+00  0.0000000000000000e+00  0.0000000000000000e+00  0.0000000000000000e+00  0.0000000000000000e+00  0.0000000000000000e+00  0.0000000000000000e+00  0.0000000000000000e+00  0.0000000000000000e+00  0.0000000000000000e+00  0.0000000000000000e+00  0.0000000000000000e+00  0.0000000000000000e+00  0.0000000000000000e+00  0.0000000000000000e+00  0.0000000000000000e+00  0.0000000000000000e+00  0.0000000000000000e+00  0.0000000000000000e+00  0.0000000000000000e+00  0.0000000000000000e+00  0.0000000000000000e+00  0.0000000000000000e+00  0.0000000000000000e+00  0.0000000000000000e+00  0.0000000000000000e+00  0.0000000000000000e+00  0.0000000000000000e+00  0.0000000000000000e+00  0.0000000000000000e+00  0.0000000000000000e+00  0.0000000000000000e+00  0.0000000000000000e+00  0.0000000000000000e+00  0.0000000000000000e+00  0.0000000000000000e+00  0.0000000000000000e+00  0.0000000000000000e+00  0.0000000000000000e+00  0.0000000000000000e+00  0.0000000000000000e+00  0.0000000000000000e+00  0.0000000000000000e+00  0.0000000000000000e+00  0.0000000000000000e+00  0.0000000000000000e+00  0.0000000000000000e+00  0.0000000000000000e+00  0.0000000000000000e+00  0.0000000000000000e+00  0.0000000000000000e+00  0.0000000000000000e+00  0.0000000000000000e+00  0.0000000000000000e+00  0.0000000000000000e+00  0.0000000000000000e+00  0.0000000000000000e+00  0.0000000000000000e+00  0.0000000000000000e+00  0.0000000000000000e+00  0.0000000000000000e+00  0.0000000000000000e+00  0.0000000000000000e+00  0.0000000000000000e+00  0.0000000000000000e+00  0.0000000000000000e+00  0.0000000000000000e+00  0.0000000000000000e+00  0.0000000000000000e+00  0.0000000000000000e+00  0.0000000000000000e+00  0.0000000000000000e+00  0.0000000000000000e+00  0.0000000000000000e+00  4.0468143179834792e-01  4.0461899033021703e-01  4.0563989269834028e-01  4.0635098724136132e-01  4.0685916493187019e-01  4.0753934550059157e-01  4.0801788471889688e-01  4.0828854451488361e-01  4.0821412166862109e-01  4.0806354140300327e-01  4.0760044813629265e-01  4.0676966675254533e-01  4.0639051290943939e-01  4.0605540626429276e-01  4.0555096336810986e-01  4.0544890428823899e-01  4.0578835445418587e-01  4.0611707723840956e-01  4.0620407014864912e-01  4.0651317586724078e-01  4.0698143460968439e-01  4.0715535819176724e-01  4.0706574546810870e-01  4.0695826484740294e-01  4.0660258829211549e-01  4.0604704197668884e-01  4.0570004312078234e-01  4.0560125301548960e-01  4.0560267824150592e-01  4.0584780016508004e-01  4.0610924684805033e-01  4.0663404140504061e-01  4.0725609490560122e-01  4.0803859589347102e-01  4.0852499483718768e-01  4.0836226289800925e-01  4.0823734689155600e-01  4.0810791865953339e-01  4.0665675218520436e-01  4.0616373061230976e-01  4.0538600613475440e-01  4.0498727614571034e-01  4.0460256887858781e-01  4.0414526775603754e-01  4.0424827209429592e-01  4.0470211744561962e-01  4.0545076615270109e-01  4.0623689762874055e-01  4.0712041376172375e-01  4.0838682871451826e-01  4.0850294086478717e-01  4.0975234343986955e-01  4.1039449499283670e-01  4.1030359110863668e-01  4.0940567263830269e-01  4.0926392648068538e-01  4.0822328527033852e-01  4.0636865321053245e-01  4.0584147166977613e-01  4.0510394735244648e-01  4.0468910247132456e-01  4.0441952721271129e-01  4.5998334491462745e-01  4.6570739812743661e-01  4.5924424662642388e-01  4.5715720538206500e-01  4.6011483879607662e-01  4.6300817896224578e-01  4.6333288565771574e-01  4.6110943437241142e-01  4.6020707903802283e-01  4.6187479255732217e-01  4.6920143967920930e-01  4.6880978171350507e-01  4.5582777907322652e-01  4.6725941732465892e-01  4.6781651646359595e-01  4.6269273357556601e-01  4.6681932947435251e-01  4.6546570098834378e-01  4.6375272204374979e-01  4.6564413074514077e-01  4.6652800886741602e-01  4.6307527255037401e-01  4.6012013926025436e-01  4.5984180288009580e-01  4.5953475980741298e-01  4.6079281839177200e-01  4.5942271446257360e-01  4.5844714936749786e-01  4.5599461783258510e-01  4.6488341874820166e-01  5.1457186510090203e-01  5.1387693228726694e-01  5.5921260039246690e-01  5.5338581931024999e-01  6.0464593300753633e-01  6.0465006950306044e-01  5.9101588613293687e-01  6.3582010747723938e-01  6.1230902802153797e-01  6.5724355381970012e-01  6.2034329338961691e-01  6.7649460737395040e-01  6.2815616215808001e-01  6.6723763486862131e-01  6.1006180931791110e-01  6.4845457415412211e-01  6.7777125858283127e-01  6.4568412909641260e-01  5.9462682607804440e-01  6.0494430717506775e-01  6.6000479010868707e-01  6.0138858997189670e-01  6.5070658737392784e-01  5.9581046485043521e-01  6.2045976788207147e-01  6.7597050693542493e-01  6.3270893638523262e-01  6.8436174559221141e-01  6.3122005988668750e-01  6.7334877782933500e-01  6.1450904223295644e-01  6.4630638399497120e-01  5.9119530034613654e-01  5.9964911834433088e-01  6.5043489925637255e-01  5.9670260410764786e-01  6.3793560732016275e-01  5.8638691927556852e-01  6.0648084081211007e-01  6.6229051093986169e-01  6.2111427431409538e-01  6.7466703482060597e-01  6.2368475162803227e-01  5.9225774861960712e-01  6.0092121262847531e-01  6.8839604198586724e-01  5.9648280420143962e-01  5.8619573993538709e-01  5.8906302910674291e-01  5.7665002231215190e-01  6.1115579760970107e-01  5.6057934894388795e-01  5.3819095629112512e-01  5.6515675562407619e-01  5.3202737411025258e-01  5.5145187905345383e-01  5.5989734696256654e-01  5.5895639700228861e-01  5.7437836931044850e-01  5.4073457181193252e-01  5.5746277071216055e-01  5.5555649950451180e-01  5.6898925162343683e-01  5.5182829321340043e-01  6.9801043725854783e-01  5.8679448072881202e-01  5.4627728461099134e-01  5.3244045557845876e-01  5.5519326783473377e-01  5.3606896681619931e-01  5.2075106749938316e-01  5.3554126572380101e-01  5.0544238613207138e-01  5.3412301565851117e-01  5.4994734335790896e-01  5.1331656581909024e-01  5.3632512054401160e-01  5.4006068396217599e-01  6.9609690070362407e-01  5.2796278044582412e-01  5.4722377308408610e-01  5.4653231314796658e-01  5.1730997721349703e-01  5.7064114663536181e-01  5.3706564672145907e-01  5.2555059260152881e-01  5.6297545072387900e-01  5.2480076267693176e-01  5.0460234875255017e-01  5.0449979641995069e-01  5.0206811806811014e-01  5.0414429507411729e-01  5.9277683170752948e-01  5.5246252443338517e-01  5.1727178901486803e-01  6.4444901566372947e-01  7.1210729281440588e-01  4.9226598175788133e-01  7.1266153065588922e-01  6.8994601524153099e-01  5.2155141128329741e-01  4.9517438443280087e-01  6.9309574112951033e-01  6.6889613498722444e-01  5.6272082974565829e-01  4.6388366292850935e-01  4.6300250947641464e-01  5.1916895367387761e-01  4.6245840089418444e-01  4.6331488358845774e-01  4.9547795185808463e-01  5.0174396835970514e-01  4.6154505689952124e-01  4.6432823655614786e-01  4.6346205951703323e-01  4.5982966567808814e-01  4.7378895635049939e-01  4.7018989010959877e-01  4.6626607545891774e-01  5.1255502429124822e-01  5.1139645445804360e-01  5.0457645646236338e-01  5.0592680076321028e-01  5.0310123050789501e-01  5.5839979133742212e-01  4.6192982600985427e-01  5.1245461722773400e-01  4.6138287228825425e-01  5.0873541387289956e-01  4.6485760572407947e-01  4.6455258164329782e-01  4.6439745630069396e-01  5.0684408449442120e-01  5.3908138222049151e-01  4.5981641648921640e-01  5.1422316735233375e-01  4.6090079918038734e-01  5.1001308341366691e-01  5.1710504530298418e-01  4.6013741209991044e-01  4.5950690578022996e-01  4.6093932316832703e-01  5.0819744742659179e-01  7.1455848016967327e-01  4.5866034469108335e-01  7.1173800467721982e-01  4.5958226318802398e-01  5.0340047045082348e-01  4.5391349863127817e-01  4.5624239417745810e-01  4.6286140921412761e-01  5.0195072130414786e-01  5.5026296150041343e-01  6.9432048031144322e-01  7.1723249625881158e-01  5.0733733048929752e-01  4.5846686004828513e-01  4.5378632209709996e-01  5.0565881872413476e-01  4.5896134589699711e-01  6.8144288281628063e-01  5.4398168347749309e-01  5.3814604806394273e-01  5.4456826725301033e-01  4.5217077050841820e-01  5.0964693924834648e-01  5.0633517084457680e-01  4.9913301674742766e-01  5.0403660552113905e-01  5.0114750509609030e-01  5.7309100764477527e-01  5.1141842317698261e-01  5.4726034831659098e-01  5.0862130326638144e-01  5.0403101244797210e-01  5.0173349313894156e-01  5.4508710675016503e-01  5.1360467000674470e-01  5.0418897008249597e-01  4.9902019565498845e-01  5.0326903587363536e-01  5.4941600416417735e-01  7.1938956540180987e-01  4.9618329425186769e-01  7.1594542892803081e-01  5.5613580488118841e-01  4.4924264293355026e-01  5.5337400673616299e-01  4.4739884699444366e-01  5.7718721076708024e-01  5.6846607147190487e-01  5.8800572522150241e-01  5.3284057949708297e-01  5.0423879141632888e-01  5.7164174534472256e-01  5.7970950216873141e-01  5.8249978370724687e-01  4.9713665712933691e-01  5.6009364036298448e-01  5.4604952033635679e-01  5.3626848826586948e-01  5.0344305558437308e-01  4.4921257444496632e-01  5.4176768233463868e-01  5.6587572481188719e-01  4.9431452688581878e-01  4.9646891169224339e-01  4.9773006676245962e-01  5.5890622473838947e-01  4.9556049529795759e-01  5.7250845564422015e-01  5.4568178389961985e-01  5.6546567504670364e-01  5.0095960687576502e-01  5.6568719827179503e-01  5.7497487720558627e-01  5.3895801088773765e-01  5.6766413596217324e-01  4.9843042391198744e-01  5.7666102883736070e-01  5.6879696679801994e-01  6.0905747128706522e-01  5.0660963266427084e-01  3.5740194344057358e-01  3.5668964705072786e-01  3.5423037931620899e-01  3.5348751382430410e-01  3.5221724663637194e-01  3.5970074875033015e-01  3.4705906364038186e-01  3.5384856097143547e-01  3.5414925831698868e-01  3.5784676002567450e-01  3.4488820044240759e-01  3.4779814511781321e-01  3.4943316994669799e-01  3.5031703854601376e-01  3.4642077506346047e-01  3.4604651638526773e-01  3.4912257805727215e-01  1.9294403731184954e-02  3.5529508742423282e-01  2.0419112190957489e-02  1.9821488744199613e-02  2.0896708586065321e-02  2.0435230825820477e-02  2.0283024539546519e-02  3.4716611793121305e-01  2.0375864036679122e-02  3.4701096801006648e-01  3.5148367945245912e-01  1.9871475550421167e-02  3.4667374902568182e-01  3.5779396012375353e-01  3.4623876312085416e-01  3.5104919151131092e-01  4.5089221830975516e-02  4.3599029287440548e-02  3.8870222943274246e-02  4.3139448577910480e-02  4.8626949684047703e-02  5.0226940419968440e-02  4.7055330742301012e-02  4.2551922125129440e-02  5.3033945026357818e-02  4.6860857922621631e-02  4.9282231228136256e-02  5.3286446123730458e-02  5.7778971291810380e-03  6.7502580234499983e-03  5.8284886554543962e-03  5.0600620273072074e-03  4.7302304906144312e-03  4.8137526954362339e-03  4.7724263591989204e-03  6.7479380235173506e-03  3.4493608257208030e-01  2.9685969009582958e-01  2.9430329356250895e-01  2.5149208561732589e-01  2.5171254568779727e-01  2.4629276950277931e-01  2.0798058896734356e-01  2.1370218560220225e-01  1.6335050284528091e-01  1.6024310545660100e-01  2.0391520016640083e-01  1.5413906417680034e-01  2.0025585284161826e-01  1.4542947572624151e-01  1.7906839210982969e-01  1.3359161907196151e-01  1.6133065815708159e-01  1.1110492049817219e-01  1.3915281523924586e-01  9.7054356099049277e-02  1.1633309016692975e-01  1.6210310865281360e-01  1.3391519492971787e-01  1.8118690143453553e-01  1.4740322490486976e-01  7.8099694477633305e-02  2.0290820022229242e-01  1.5826591585085503e-01  1.1381978468334605e-01  1.0313211515791182e-01  2.0714621952312717e-01  1.6312741730310032e-01  2.1845884992535763e-01  1.6502600869864217e-01  2.1927587072076068e-01  1.6173859644295716e-01  2.0514646041696230e-01  2.1309708615670955e-01  6.2334532455061632e-02  4.6868923456948076e-02  1.6828701155878803e-01  5.8796060512336622e-02  2.0974702487369115e-01  1.1923086616484439e-01  1.5489382858499803e-01  2.0181305822878592e-01  1.2105188290555839e-01  1.4373311373385708e-01  1.7946653218120232e-01  1.2487904925822130e-01  1.5578594060355289e-01  2.1020906151174823e-01  1.9800891532317674e-01  1.3391828915947415e-01  1.6714002925258395e-01  2.2340202258883157e-01  1.9603250047958867e-01  1.4234737387515403e-01  1.6088157326109195e-01  1.1662805942693409e-01  1.3285742532726802e-01  1.8566031691694754e-01  1.4726756366154325e-01  1.9820117379893271e-01  1.6330770526865973e-01  1.1650356377769477e-01  1.2049921407113522e-01  1.5986875664067030e-01  1.2210112937139549e-01  1.5895379460062772e-01  8.3717540106070062e-02  1.1842710437326175e-01  1.6086986658103028e-01  1.0931503616634010e-01  1.4153718729666923e-01  1.9893058854270917e-01  9.0940321731899518e-02  2.6325582510571449e-01  9.4746474666046757e-02  1.2277893328523110e-01  1.7423595998271277e-01  1.5201970087288558e-01  2.1477527703603538e-01  1.8239887280379163e-01  1.2731298410523692e-01  1.5309875059316272e-01  2.0942901387722235e-01  1.8535085393433867e-01  7.4504773953318018e-02  9.3788970005910341e-02  2.3070267191665378e-01  7.9426486829589749e-02  2.5122686637749553e-01  2.5096208667065883e-01  2.3684637383605278e-01  1.9746804504480878e-01  2.5131863724634090e-01  2.2030400255457225e-01  1.5973457310315797e-01  1.7318272851039127e-01  2.2467566795873639e-01  1.8167825402670507e-01  2.3084063003008695e-01  1.9342548559774833e-01  1.4319666250881408e-01  1.4654310226674716e-01  1.8728127179166706e-01  1.4596699228436824e-01  1.8417443919197915e-01  1.4164052209932018e-01  1.7809642585876986e-01  1.3345630508472711e-01  1.6551225396121230e-01  1.2067216710514016e-01  1.4820111417785747e-01  9.3595593192103990e-02  8.1844085667305139e-02  1.0129844301373267e-01  6.0476221501122668e-02  1.9865276871612178e-01  1.7796246196475696e-01  1.2835112609550284e-01  1.5993595078587422e-01  1.0692636979993940e-01  2.2250622293933131e-01  1.2475031389165080e-01  1.7494420010146250e-01  1.4035386954893792e-01  1.9345771700403530e-01  1.5358136538777589e-01  2.3150508443887172e-01  7.0609449576861841e-02  2.1472924945338678e-01  1.6395401220204628e-01  4.9795353405808464e-02  2.1827081133328330e-01  1.7803971054471607e-01  2.2085410902719174e-01  1.7070528452506073e-01  2.1984270222109301e-01  1.6255454585282941e-01  2.0532010084881455e-01  1.5406230540805307e-01  1.9870553992464957e-01  1.4223287564801257e-01  1.7266318962561425e-01  1.2383345555234451e-01  1.5206968299560655e-01  1.0641580180355387e-01  1.2943914549120000e-01  1.7835945353930271e-01  1.5095350075304553e-01  1.0628387119880883e-01  1.2315212337109169e-01  8.3411391182367470e-02  9.5783252234530172e-02  1.3683360517321580e-01  1.0477417294035464e-01  1.4606429957730746e-01  1.1027543616521289e-01  1.5062768375647773e-01  1.7940672171376829e-01  6.1561630150340808e-02  1.0821508629102211e-01  1.5065269656740946e-01  1.9690721639414754e-01  2.0088629672453431e-01  1.4728300108871115e-01  1.8745694931518869e-01  1.3808442984904898e-01  1.7829381668544475e-01  1.2639193971124163e-01  2.0381999435093337e-01  5.1079881534578250e-02  2.3240147310952475e-01  7.6752825451757434e-02  3.4360289983097481e-02  2.2518869996649907e-01  3.3829437879393305e-02  8.0834846129615751e-02  4.2113680282142227e-02  1.2287448806323578e-01  2.3381832053688667e-01  2.3802206749669721e-01  2.4958496931097479e-01  7.7255855907831475e-02  1.1302019276947924e-01  1.1836427450342236e-01  2.5069621527584629e-01  8.6560278697927609e-02  2.8221510278513284e-01  2.5692728935467762e-01  2.8442787306774286e-01  2.6204270102444110e-01  2.3341320828108880e-01  2.4629572748367803e-01  2.4385292963326641e-01  7.1563515457685994e-02  2.5743545181124139e-01  1.2623929233322531e-01  2.7745571115658824e-01  3.0325170058216971e-01  2.6984283264906439e-01  1.7442716463199759e-01  3.4835106202051443e-02  2.1586142853359171e-02  2.5105103692827352e-01  2.8189596442155962e-01  2.6267168011077580e-01  1.1752585942701602e-01  1.1516440405266937e-01  2.9733785278079328e-01  2.6254184797817742e-01  2.6021190345895628e-01  2.6209838786412892e-01  2.6592350497951744e-01  2.6692105513820774e-01  2.8354861878496301e-01  2.5300773695715695e-01  2.7826405891393902e-01  3.1251112961291394e-01  2.7197178844693404e-01  2.7750390209211823e-01  2.6065200420777740e-01  7.7559551161522536e-02  2.3629464081527859e-01  2.5432686072015942e-01  2.8471164117045505e-01  3.0746959431869614e-01  2.8354439918271884e-01  2.4680262490401794e-01  9.9068337393334774e-02  3.1204666812314097e-01  2.7731161020859124e-01  9.6132223299402159e-02  1.0648091574076002e-01  7.6870865615591269e-02  2.5996354168246177e-02  4.7170323106839350e-02  5.6886381439565516e-02  6.7030670785523438e-02  4.6476021167034989e-02  2.9286874626676657e-01  2.8694062426205913e-01  2.8870976932612619e-01  2.9343304118986913e-01  2.5095670737839160e-01  2.9145414892672988e-01  2.6089951028512037e-01  3.0581282541017041e-01  2.4726960815950533e-01  2.8123325859141951e-01  2.2103587556338733e-01  2.7478923661090759e-01  3.5440462905183950e-01  3.1752404138175289e-01  3.5360011102749078e-01  2.4266411724456587e-02  3.4729070409168533e-01  2.9931178668224628e-01  2.9787440320146169e-01  2.5302135620556260e-01  9.2902387904230388e-02  3.4350018190460241e-01  2.9209499647902643e-01  3.2936432103539176e-01  2.7647803420686362e-01  7.8984626665959526e-02  2.9462662885233276e-01  2.2548503473589149e-01  2.8691189956019297e-01  3.4316902641506242e-01  2.9837231278598325e-01  2.9671781972938810e-01  3.4673688272245889e-01  3.4381781356075042e-01  2.9942838288016010e-01  2.8983489755069825e-01  3.4516492397447340e-01  2.6000569514985683e-01  3.0239003201446440e-01  2.9664805344970580e-01  3.4349346212484666e-01  2.9081304398565705e-01  3