<?xml version="1.0"?>
<VTKFile type="UnstructuredGrid"  version="0.1"  >
<UnstructuredGrid>
<Piece  NumberOfPoints="1328" NumberOfCells="2558">
<Points>
<DataArray  type="Float64"  NumberOfComponents="3"  format="ascii">0 0 0  0 1 0  1 1 0  1 0 0  0.25 0.5 0  1.1 -0.1 0  -0.1 -0.1 0  1.1 1.1 0  -0.1 1.1 0  0.5 0.5 0  0 0.9499999999997918 0  0 0.8999999999995836 0  0 0.8499999999996529 0  0 0.7999999999999998 0  0 0.7500000000003466 0  0 0.7000000000006934 0  0 0.6500000000010401 0  0 0.6000000000013869 0  0 0.5500000000017335 0  0 0.5000000000020587 0  0 0.4500000000018723 0  0 0.4000000000016644 0  0 0.3500000000014564 0  0 0.3000000000012483 0  0 0.2500000000010403 0  0 0.2000000000008322 0  0 0.1500000000006241 0  0 0.100000000000416 0  0 0.05000000000020799 0  0.04999999999989965 0 0  0.09999999999981467 0 0  0.1499999999997036 0 0  0.1999999999995579 0 0  0.2499999999994121 0 0  0.2999999999992664 0 0  0.3499999999991206 0 0  0.3999999999989749 0 0  0.4499999999988292 0 0  0.4999999999986943 0 0  0.5499999999988151 0 0  0.5999999999989468 0 0  0.6499999999990784 0 0  0.69999999999921 0 0  0.7499999999993417 0 0  0.7999999999994734 0 0  0.8499999999996051 0 0  0.8999999999997368 0 0  0.9499999999998684 0 0  1 0.04999999999989965 0  1 0.09999999999981467 0  1 0.1499999999997036 0  1 0.1999999999995579 0  1 0.2499999999994121 0  1 0.2999999999992664 0  1 0.3499999999991206 0  1 0.3999999999989749 0  1 0.4499999999988292 0  1 0.4999999999986943 0  1 0.5499999999988151 0  1 0.5999999999989468 0  1 0.6499999999990784 0  1 0.69999999999921 0  1 0.7499999999993417 0  1 0.7999999999994734 0  1 0.8499999999996051 0  1 0.8999999999997368 0  1 0.9499999999998684 0  0.9499999999997918 1 0  0.8999999999995836 1 0  0.8499999999996529 1 0  0.7999999999999998 1 0  0.7500000000003466 1 0  0.7000000000006934 1 0  0.6500000000010401 1 0  0.6000000000013869 1 0  0.5500000000017335 1 0  0.5000000000020587 1 0  0.4500000000018723 1 0  0.4000000000016644 1 0  0.3500000000014564 1 0  0.3000000000012483 1 0  0.2500000000010403 1 0  0.2000000000008322 1 0  0.1500000000006241 1 0  0.100000000000416 1 0  0.05000000000020799 1 0  0.2512423061647941 0.4751080382896405 0  0.2549568780650003 0.450463464065915 0  0.2611067986085233 0.4263112062187787 0  0.2696309471236936 0.4028913007147478 0  0.2804446067965471 0.3804365050892322 0  0.293440306626443 0.3591699851827668 0  0.308488889513686 0.3393030972286684 0  0.3254407958459123 0.3210332873266887 0  0.344127549981932 0.3045421290268288 0  0.3643634345900644 0.2899935188528786 0  0.3859473363441576 0.277532047447262 0  0.4086647447019039 0.2672815625275221 0  0.4322898838855364 0.2593439380032868 0  0.4565879565934555 0.2537980615688246 0  0.4813174777220277 0.2506990506208749 0  0.50623267412383 0.2500777045294555 0  0.5310859274396894 0.2519401985100884 0  0.555630234828706 0.2562680222603053 0  0.5796216639118213 0.2630181639114234 0  0.6028217771335632 0.2721235375316357 0  0.6250000013462933 0.2834936498311732 0  0.6459359193853307 0.2970154995248202 0  0.6654214606987447 0.3125547004049084 0  0.6832629691650047 0.3299568168586975 0  0.6992831279176015 0.3490488988865041 0  0.7133227214184995 0.3696412008086709 0  0.7252422178523719 0.3915290670412361 0  0.7349231559191535 0.4144949661541198 0  0.7422693220980935 0.4383106527013762 0  0.7472077069009581 0.4627394357427315 0  0.7496892304232642 0.4875385309598708 0  0.7496892301867037 0.512461473780066 0  0.7472077062136133 0.5372605688175031 0  0.7422693210070724 0.5616893515833331 0  0.7349231544644775 0.5855050378425694 0  0.7252422160814939 0.6084709366360299 0  0.7133227193654776 0.6303588025509503 0  0.6992831256472231 0.6509511041108117 0  0.6832629667039348 0.670043185793705 0  0.665421458092008 0.6874453018955504 0  0.6459359166885593 0.7029845024140263 0  0.6249999986385766 0.7165063517321278 0  0.6028217744473283 0.7278764636804397 0  0.5796216611488455 0.736981837016887 0  0.5556302321289374 0.7437319783558992 0  0.5310859248353553 0.7480598018162771 0  0.5062326716991737 0.7499222955310116 0  0.4813174754524939 0.749300949209047 0  0.4565879544614571 0.7462019380552466 0  0.4322898819624801 0.740656061455649 0  0.4086647429962413 0.7327184368030547 0  0.3859473347991467 0.7224679517606571 0  0.3643634333251838 0.7100064803301749 0  0.3441275489297311 0.695457870134069 0  0.3254407949698314 0.6789667118188061 0  0.3084888888534789 0.6606969019845276 0  0.2934403061462555 0.6408300141129275 0  0.2804446064830403 0.6195634943350726 0  0.269630946912789 0.5971086987849272 0  0.2611067984684691 0.5736887933271766 0  0.2549568779993002 0.5495365356090853 0  0.2512423061461697 0.5248919615242357 0  -0.1 1.05000000000004 0  -0.1 1.000000000000079 0  -0.1 0.9500000000001624 0  -0.1 0.9000000000003032 0  -0.1 0.850000000000444 0  -0.1 0.8000000000005848 0  -0.1 0.7500000000007256 0  -0.1 0.7000000000008665 0  -0.1 0.6500000000010508 0  -0.1 0.6000000000012352 0  -0.1 0.5500000000014196 0  -0.1 0.500000000001539 0  -0.1 0.4500000000014195 0  -0.1 0.4000000000013 0  -0.1 0.3500000000011588 0  -0.1 0.3000000000010178 0  -0.1 0.2500000000008986 0  -0.1 0.2000000000007579 0  -0.1 0.1500000000006174 0  -0.1 0.1000000000005272 0  -0.1 0.05000000000040083 0  -0.1 2.671196597248127e-13 0  -0.1 -0.0499999999998666 0  -0.0500000000000906 -0.1 0  -1.730560139634463e-13 -0.1 0  0.04999999999975802 -0.1 0  0.09999999999961506 -0.1 0  0.1499999999994613 -0.1 0  0.199999999999302 -0.1 0  0.2499999999991446 -0.1 0  0.2999999999990088 -0.1 0  0.3499999999988296 -0.1 0  0.3999999999986936 -0.1 0  0.4499999999985143 -0.1 0  0.4999999999984002 -0.1 0  0.5499999999985247 -0.1 0  0.5999999999986493 -0.1 0  0.6499999999987955 -0.1 0  0.6999999999989417 -0.1 0  0.7499999999990659 -0.1 0  0.7999999999992116 -0.1 0  0.8499999999993573 -0.1 0  0.8999999999994526 -0.1 0  0.949999999999584 -0.1 0  0.9999999999997226 -0.1 0  1.049999999999861 -0.1 0  1.1 -0.0500000000000906 0  1.1 -1.730560139634463e-13 0  1.1 0.04999999999975802 0  1.1 0.09999999999961506 0  1.1 0.1499999999994613 0  1.1 0.199999999999302 0  1.1 0.2499999999991446 0  1.1 0.2999999999990088 0  1.1 0.3499999999988296 0  1.1 0.3999999999986936 0  1.1 0.4499999999985143 0  1.1 0.4999999999984002 0  1.1 0.5499999999985247 0  1.1 0.5999999999986493 0  1.1 0.6499999999987955 0  1.1 0.6999999999989417 0  1.1 0.7499999999990659 0  1.1 0.7999999999992116 0  1.1 0.8499999999993573 0  1.1 0.8999999999994526 0  1.1 0.949999999999584 0  1.1 0.9999999999997226 0  1.1 1.049999999999861 0  1.05000000000004 1.1 0  1.000000000000079 1.1 0  0.9500000000001624 1.1 0  0.9000000000003032 1.1 0  0.850000000000444 1.1 0  0.8000000000005848 1.1 0  0.7500000000007256 1.1 0  0.7000000000008665 1.1 0  0.6500000000010508 1.1 0  0.6000000000012352 1.1 0  0.5500000000014196 1.1 0  0.500000000001539 1.1 0  0.4500000000014195 1.1 0  0.4000000000013 1.1 0  0.3500000000011588 1.1 0  0.3000000000010178 1.1 0  0.2500000000008986 1.1 0  0.2000000000007579 1.1 0  0.1500000000006174 1.1 0  0.1000000000005272 1.1 0  0.05000000000040083 1.1 0  2.671196597248127e-13 1.1 0  -0.0499999999998666 1.1 0  -0.03648848684212359 -0.03648848684206235 0  1.035872194272456 -0.03604827786383151 0  1.035872194272466 1.036048277863757 0  -0.035872194272415 1.036048277863791 0  0.8256944444445634 1.048958333333317 0  -0.05000000000014656 0.7750000000001729 0  0.7250000000005199 1.050000000000095 0  -0.05000000000004323 0.6750000000008666 0  -0.04999999999987011 0.4750000000014792 0  -0.04999999999997533 0.9250000000000334 0  0.6250000000012135 1.050000000000003 0  0.3749999999987615 -0.04999999999992971 0  -0.04999999999996196 0.5750000000015604 0  1.049999999999927 0.3249999999989192 0  1.048958333333338 0.4743055555542179 0  0.2749999999990767 -0.0499999999999356 0  1.051041666666676 0.1756944444439305 0  0.1749999999993816 -0.04999999999993601 0  0.5250000000016561 1.049999999999902 0  1.051041666666691 0.0743055555552848 0  0.07430555555528473 -0.05104166666669103 0  0.4749999999986184 -0.05000000000005765 0  0.9718954248364364 -0.05224673202615898 0  0.9729370915032838 1.053462009803922 0  0.4250000000013597 1.049999999999887 0  1.049999999999999 0.9249999999996957 0  1.050000000000073 0.574999999998881 0  0.5746527777765342 -0.05017361111116514 0  0.8249999999992845 -0.0499999999999383 0  1.049826388888858 0.7746527777770745 0  1.049999999999956 0.6749999999990034 0  -0.04999999999990883 0.3750000000012293 0  0.3250000000010883 1.049999999999926 0  -0.05121527777775005 0.0739583333337563 0  0.1250000000005722 1.049999999999973 0  -0.04999999999999223 0.2250000000008687 0  0.2250000000008281 1.050000000000018 0  0.7243055555546716 -0.05104166666665808 0  0.02741013071920461 1.053288398692781 0  -0.0487847222222069 0.8746527777778061 0  0.8754629629629802 1.051041666666657 0  1.051041666666679 0.4245370370357895 0  1.051388888888913 0.2254629629623031 0  -0.05274275097463589 0.02682565789498903 0  0.02688352826495301 -0.05271381578949067 0  1.052713815789491 0.02688352826495305 0  0.9231919156548707 -0.05113552365390374 0  1.048784722222242 0.8746527777773456 0  -0.05121527777775596 0.2753472222232469 0  -0.05121527777775803 0.1746527777784967 0  -0.05254020467836933 0.9730007309941793 0  1.052540204678358 0.9730007309939464 0  0.6745370370360497 -0.05138888888890246 0  0.4750000000016509 1.049999999999965 0  0.5249421296282645 -0.0500289351852038 0  -0.04999999999997201 0.5250000000016317 0  1.049971064814802 0.7249421296287728 0  0.3750000000013379 1.049999999999969 0  -0.04999999999996316 0.425000000001494 0  0.2750000000010202 1.04999999999999 0  0.7748842592585081 -0.05017361111109939 0  0.1750000000007053 1.049999999999998 0  1.049826388888902 0.5248842592579221 0  0.07540168845355479 1.050548066448792 0  0.3249999999990106 -0.04999999999997755 0  0.2249999999993125 -0.0499999999999786 0  0.1248842592588768 -0.0501736111111045 0  0.424999999998732 -0.04999999999999789 0  1.050347222222228 0.124999999999635 0  -0.05000000000003163 0.72500000
[...]
<PointData  Scalars="f_40"> 
<DataArray  type="Float64"  Name="f_40"  format="ascii">0.0000000000000000e+00  0.0000000000000000e+00  0.0000000000000000e+00  0.0000000000000000e+00  4.0709547158672726e-01  0.0000000000000000e+00  0.0000000000000000e+00  0.0000000000000000e+00  0.0000000000000000e+00  7.3217226530411794e-01  0.0000000000000000e+00  0.0000000000000000e+00  0.0000000000000000e+00  0.0000000000000000e+00  0.0000000000000000e+00  0.0000000000000000e+00  0.0000000000000000e+00  0.0000000000000000e+00  0.0000000000000000e+00  0.0000000000000000e+00  0.0000000000000000e+00  0.0000000000000000e+00  0.0000000000000000e+00  0.0000000000000000e+00  0.0000000000000000e+00  0.0000000000000000e+00  0.0000000000000000e+00  0.0000000000000000e+00  0.0000000000000000e+00  0.0000000000000000e+00  0.0000000000000000e+00  0.0000000000000000e+00  0.0000000000000000e+00  0.0000000000000000e+00  0.0000000000000000e+00  0.0000000000000000e+00  0.0000000000000000e+00  0.0000000000000000e+00  0.0000000000000000e+00  0.0000000000000000e+00  0.0000000000000000e+00  0.0000000000000000e+00  0.0000000000000000e+00  0.0000000000000000e+00  0.0000000000000000e+00  0.0000000000000000e+00  0.0000000000000000e+00  0.0000000000000000e+00  0.0000000000000000e+00  0.0000000000000000e+00  0.0000000000000000e+00  0.0000000000000000e+00  0.0000000000000000e+00  0.0000000000000000e+00  0.0000000000000000e+00  0.0000000000000000e+00  0.0000000000000000e+00  0.0000000000000000e+00  0.0000000000000000e+00  0.0000000000000000e+00  0.0000000000000000e+00  0.0000000000000000e+00  0.0000000000000000e+00  0.0000000000000000e+00  0.0000000000000000e+00  0.0000000000000000e+00  0.0000000000000000e+00  0.0000000000000000e+00  0.0000000000000000e+00  0.0000000000000000e+00  0.0000000000000000e+00  0.0000000000000000e+00  0.0000000000000000e+00  0.0000000000000000e+00  0.0000000000000000e+00  0.0000000000000000e+00  0.0000000000000000e+00  0.0000000000000000e+00  0.0000000000000000e+00  0.0000000000000000e+00  0.0000000000000000e+00  0.0000000000000000e+00  0.0000000000000000e+00  0.0000000000000000e+00  0.0000000000000000e+00  0.0000000000000000e+00  4.0636577251403400e-01  4.0786159019365992e-01  4.0746143242990507e-01  4.0791878896680445e-01  4.0855988723090358e-01  4.0880048415199310e-01  4.0891459674059372e-01  4.0976235323477789e-01  4.0888715268019793e-01  4.0891630500601162e-01  4.0835455033007934e-01  4.0793460553590433e-01  4.0832529083417762e-01  4.0651857788979601e-01  4.0739719135585967e-01  4.0656325617371070e-01  4.0684184084362368e-01  4.0804476272707524e-01  4.0733092405816079e-01  4.0804610075121839e-01  4.0884236423445625e-01  4.0919252677782930e-01  4.0988163687386170e-01  4.0845571960582405e-01  4.0973101695840614e-01  4.0860849456140741e-01  4.0804277155138235e-01  4.0838572617148317e-01  4.0714347146912344e-01  4.0696011983113545e-01  4.0685162207583753e-01  4.0686450380920819e-01  4.0777610116281321e-01  4.0681964771395124e-01  4.0826151426166957e-01  4.0793623280196262e-01  4.0869989618941843e-01  4.0982287402378581e-01  4.0880177127978407e-01  4.0906399810617589e-01  4.0918135608806733e-01  4.0884861845056381e-01  4.0882353412070449e-01  4.0703452269828616e-01  4.0794427520289339e-01  4.0676272733519359e-01  4.0669964465317926e-01  4.0780385422481735e-01  4.0667073074342869e-01  4.0781960963908925e-01  4.0807238414876185e-01  4.0847726873569473e-01  4.0901183902024424e-01  4.0917944754455521e-01  4.0912302895089647e-01  4.0905577438939539e-01  4.0884959683732469e-01  4.0886244691611640e-01  4.0808538873575456e-01  4.0753338355926100e-01  4.0720906638376564e-01  4.0697304223635272e-01  0.0000000000000000e+00  0.0000000000000000e+00  0.0000000000000000e+00  0.0000000000000000e+00  0.0000000000000000e+00  0.0000000000000000e+00  0.0000000000000000e+00  0.0000000000000000e+00  0.0000000000000000e+00  0.0000000000000000e+00  0.0000000000000000e+00  0.0000000000000000e+00  0.0000000000000000e+00  0.0000000000000000e+00  0.0000000000000000e+00  0.0000000000000000e+00  0.0000000000000000e+00  0.0000000000000000e+00  0.0000000000000000e+00  0.0000000000000000e+00  0.0000000000000000e+00  0.0000000000000000e+00  0.0000000000000000e+00  0.0000000000000000e+00  0.0000000000000000e+00  0.0000000000000000e+00  0.0000000000000000e+00  0.0000000000000000e+00  0.0000000000000000e+00  0.0000000000000000e+00  0.0000000000000000e+00  0.0000000000000000e+00  0.0000000000000000e+00  0.0000000000000000e+00  0.0000000000000000e+00  0.0000000000000000e+00  0.0000000000000000e+00  0.0000000000000000e+00  0.0000000000000000e+00  0.0000000000000000e+00  0.0000000000000000e+00  0.0000000000000000e+00  0.0000000000000000e+00  0.0000000000000000e+00  0.0000000000000000e+00  0.0000000000000000e+00  0.0000000000000000e+00  0.0000000000000000e+00  0.0000000000000000e+00  0.0000000000000000e+00  0.0000000000000000e+00  0.0000000000000000e+00  0.0000000000000000e+00  0.0000000000000000e+00  0.0000000000000000e+00  0.0000000000000000e+00  0.0000000000000000e+00  0.0000000000000000e+00  0.0000000000000000e+00  0.0000000000000000e+00  0.0000000000000000e+00  0.0000000000000000e+00  0.0000000000000000e+00  0.0000000000000000e+00  0.0000000000000000e+00  0.0000000000000000e+00  0.0000000000000000e+00  0.0000000000000000e+00  0.0000000000000000e+00  0.0000000000000000e+00  0.0000000000000000e+00  0.0000000000000000e+00  0.0000000000000000e+00  0.0000000000000000e+00  0.0000000000000000e+00  0.0000000000000000e+00  0.0000000000000000e+00  0.0000000000000000e+00  0.0000000000000000e+00  0.0000000000000000e+00  0.0000000000000000e+00  0.0000000000000000e+00  0.0000000000000000e+00  0.0000000000000000e+00  0.0000000000000000e+00  0.0000000000000000e+00  0.0000000000000000e+00  0.0000000000000000e+00  0.0000000000000000e+00  0.0000000000000000e+00  0.0000000000000000e+00  0.0000000000000000e+00  0.0000000000000000e+00  0.0000000000000000e+00  0.0000000000000000e+00  0.0000000000000000e+00  0.0000000000000000e+00  0.0000000000000000e+00  0.0000000000000000e+00  0.0000000000000000e+00  0.0000000000000000e+00  0.0000000000000000e+00  0.0000000000000000e+00  0.0000000000000000e+00  0.0000000000000000e+00  0.0000000000000000e+00  0.0000000000000000e+00  0.0000000000000000e+00  0.0000000000000000e+00  0.0000000000000000e+00  0.0000000000000000e+00  0.0000000000000000e+00  0.0000000000000000e+00  0.0000000000000000e+00  0.0000000000000000e+00  0.0000000000000000e+00  0.0000000000000000e+00  0.0000000000000000e+00  0.0000000000000000e+00  0.0000000000000000e+00  0.0000000000000000e+00  0.0000000000000000e+00  0.0000000000000000e+00  0.0000000000000000e+00  0.0000000000000000e+00  0.0000000000000000e+00  0.0000000000000000e+00  0.0000000000000000e+00  0.0000000000000000e+00  0.0000000000000000e+00  0.0000000000000000e+00  0.0000000000000000e+00  0.0000000000000000e+00  0.0000000000000000e+00  0.0000000000000000e+00  0.0000000000000000e+00  0.0000000000000000e+00  0.0000000000000000e+00  0.0000000000000000e+00  0.0000000000000000e+00  0.0000000000000000e+00  0.0000000000000000e+00  0.0000000000000000e+00  0.0000000000000000e+00  0.0000000000000000e+00  0.0000000000000000e+00  0.0000000000000000e+00  0.0000000000000000e+00  0.0000000000000000e+00  0.0000000000000000e+00  0.0000000000000000e+00  0.0000000000000000e+00  0.0000000000000000e+00  0.0000000000000000e+00  0.0000000000000000e+00  0.0000000000000000e+00  0.0000000000000000e+00  0.0000000000000000e+00  0.0000000000000000e+00  0.0000000000000000e+00  0.0000000000000000e+00  0.0000000000000000e+00  0.0000000000000000e+00  0.0000000000000000e+00  0.0000000000000000e+00  0.0000000000000000e+00  0.0000000000000000e+00  0.0000000000000000e+00  0.0000000000000000e+00  0.0000000000000000e+00  0.0000000000000000e+00  0.0000000000000000e+00  0.0000000000000000e+00  0.0000000000000000e+00  0.0000000000000000e+00  0.0000000000000000e+00  0.0000000000000000e+00  0.0000000000000000e+00  0.0000000000000000e+00  0.0000000000000000e+00  0.0000000000000000e+00  0.0000000000000000e+00  0.0000000000000000e+00  0.0000000000000000e+00  0.0000000000000000e+00  0.0000000000000000e+00  0.0000000000000000e+00  0.0000000000000000e+00  9.6221875615562738e-02  9.6219559530094312e-02  9.8832199729924214e-02  9.8832922786851463e-02  1.5537416882649915e-01  1.5312098699030843e-01  1.5275628406396080e-01  1.5581669424342132e-01  1.5433729534669380e-01  1.5597543597153612e-01  1.5594849164038352e-01  1.5430852162082487e-01  1.7272291467062706e-01  1.7400273027466973e-01  1.7458358822492615e-01  1.7455154429851277e-01  1.7280392824894936e-01  1.7287145018707539e-01  1.8424217990993735e-01  1.8437598472063091e-01  2.1476405438445534e-01  2.1476245229226013e-01  2.1805789434929115e-01  2.1804290613034444e-01  2.4318569053884229e-01  2.4348845617712722e-01  2.3663206112596691e-01  5.5126397185778248e-02  5.5123990613725166e-02  2.4229596183283805e-01  2.4287151735053919e-01  2.4268992202620301e-01  2.4251937712457919e-01  2.1592426469560229e-02  2.1592817929952244e-02  2.4339793782535765e-01  2.4070321392580540e-01  2.4666538346184252e-01  2.4742322026842409e-01  2.6543429919313144e-01  2.6564810254176180e-01  2.6541169028646111e-01  2.6565844625396273e-01  2.6625631090383750e-01  2.6591297417980025e-01  2.5944511794482195e-01  2.6624858253043415e-01  5.6327601090023140e-02  5.6325961943356290e-02  2.1005294179807406e-02  2.1005969746069220e-02  5.8005843615268476e-02  5.8002526923828346e-02  6.3268817833292773e-02  6.4286224521141230e-02  7.9261346881417893e-02  7.9180489371357479e-02  8.3451287955011166e-02  8.3448670666383631e-02  8.7183001346954600e-02  8.3103829452500527e-02  8.3404320314090952e-02  2.5703290782129151e-01  8.3513870048130018e-02  8.3524219006854680e-02  8.7062209211223526e-02  8.5415502041718466e-02  9.3790593887038920e-02  2.7586586325158746e-01  2.7585292857470900e-01  2.7573336724958730e-01  2.7572348894778714e-01  2.7663153426157239e-01  2.7665231160612413e-01  2.9255702923312626e-01  1.4995201703063202e-01  1.4993555681415513e-01  2.8228725736689975e-01  1.4488485746229168e-01  1.4490955738781694e-01  1.4931725466273407e-01  1.4932579933054355e-01  1.4609101043999190e-01  1.4603504575710063e-01  3.0538593987264645e-01  3.0536062771421513e-01  8.0315193378404870e-02  2.2937330195691451e-02  2.2936161782579515e-02  3.0727913043961974e-01  3.0729133880278781e-01  8.1704572616503948e-02  8.1721058899585586e-02  8.8079359647053782e-02  8.8083713935049032e-02  8.7003234967413065e-02  3.0327534799728867e-01  3.0341496788215871e-01  3.0458757819905896e-01  3.0490576451504636e-01  3.0500461177560423e-01  3.0499404153661919e-01  1.7353109462730193e-01  1.7345743161075353e-01  2.5662277860984760e-02  2.5652561771225657e-02  1.7476555627394430e-01  1.7477178620945835e-01  1.7299370539077261e-01  1.7305191685029739e-01  1.7920293401358989e-01  3.1418826596919203e-01  3.1467004282340083e-01  3.1409281965196739e-01  3.1480319200418622e-01  3.1547437114626836e-01  3.0758132808867411e-01  3.1558105496352501e-01  3.1476712730193601e-01  1.7300284434917168e-01  8.1109076718557507e-02  8.1112432522619793e-02  7.4668098884833861e-02  8.0209033180794725e-02  8.0214406628206156e-02  7.8985442154005200e-02  7.8982761785795372e-02  1.7548913755665738e-01  6.9938026871034120e-02  2.0065437153405041e-02  2.0064524596248107e-02  3.1637332706943355e-01  3.1645330175826325e-01  3.1635587323686853e-01  3.1645334537432590e-01  3.1688492131067608e-01  3.1719960597719438e-01  3.1687705762672608e-01  3.1723396420134531e-01  5.4181408163009731e-02  5.4179635870513818e-02  3.1807869848330877e-01  3.1792308864781493e-01  3.1789075315970561e-01  3.1804442033652103e-01  3.1849150241848512e-01  3.1848611323159515e-01  9.3434049470338940e-02  3.1854237433560445e-01  3.1934342569848440e-01  2.4861817876915302e-02  2.4862080682624906e-02  5.3486055896899740e-02  5.3486925523983382e-02  2.4840277392042883e-03  2.4836177756162839e-03  3.6215131927228457e-03  3.6214435905660507e-03  9.7908479181346639e-02  1.4888825348564530e-01  1.6035673172542472e-01  1.5981297235861217e-01  2.3462159806881738e-01  2.3353286580673441e-01  2.3435528009223103e-01  2.3458544346039903e-01  2.3806830844474727e-01  2.3306363853133089e-01  1.6736164519567237e-01  1.6835419310028762e-01  1.7245659271917380e-01  2.4598378918230929e-01  2.4578217085208137e-01  4.8207251862673849e-02  4.8209004464639674e-02  5.1592009528747929e-02  5.1594277765147897e-02  2.4563562848015802e-01  2.4563771727631944e-01  2.4492849667458111e-01  2.4465503378262074e-01  2.4467140449999344e-01  2.4487623848139442e-01  1.0815379688361988e-01  1.0816009287744882e-01  1.0584276292895578e-01  1.0584527203363972e-01  3.3307882506500061e-02  3.3306362763408148e-02  3.1842175558201413e-01  2.4863843606861713e-01  2.4520259008004500e-01  2.4545393579302999e-01  2.4838230927839178e-01  2.4709677166823790e-01  2.5109906353486955e-01  2.4631313192581838e-01  2.4620826096133955e-01  9.7025173704620202e-02  9.7034480948894664e-02  1.4483078367785657e-01  1.4482756203739466e-01  1.0109614635537531e-01  1.0103761768387626e-01  3.2475552596264995e-01  1.4840549990578183e-01  1.4839642715774562e-01  8.4729774280959388e-02  8.4725151733550247e-02  3.5559006854869034e-02  3.5558700273051976e-02  2.7851721150060845e-02  2.7855457497747999e-02  8.4298676685071641e-02  8.4075770611436257e-02  2.0895404620496968e-01  2.0901093085322611e-01  2.0763734352589111e-01  2.0755199439998359e-01  8.5833693790092036e-02  8.5836365673105819e-02  4.2432129073821781e-02  4.2830197785017503e-02  2.1624286573963303e-01  2.1693626954268908e-01  2.1597678359183251e-01  2.1562105708271695e-01  8.2457264290392313e-03  8.2453634972259344e-03  8.3463113266931524e-02  8.3465281701096738e-02  3.6967742812995481e-02  3.7018436666045693e-02  3.3093051295531101e-01  3.3077304898498999e-01  3.3078833920535283e-01  3.3093287280853906e-01  3.3134733562016538e-01  3.3133682787480417e-01  2.2359742375356564e-02  2.2361351784466472e-02  4.1474349978753169e-02  4.1469549618932101e-02  1.3040222571782037e-01  1.3039776750586013e-01  6.3886820403569406e-03  6.3882747883888587e-03  3.4299193146995993e-01  2.4351413495820633e-02  1.1541199255400091e-01  1.1540678647367353e-01  2.2389118882247760e-01  4.1749174474836843e-02  4.1750971765203426e-02  2.4387931582002080e-02  3.3590286687048920e-01  3.3588055400872879e-01  3.3584404104967008e-01  3.3593260594090857e-01  3.3638521466931409e-01  3.3636868518714491e-01  1.2906575250588542e-01  1.2793411018340306e-01  1.2084913521640385e-01  1.2050334631201993e-01  6.4891179490831679e-03  6.4896333086891063e-03  4.8505313637190767e-02  4.8502436958045535e-02  1.2775351774228602e-01  1.2783673110021559e-01  2.5062039396170083e-01  2.4897982994609222e-01  2.4866149277164395e-01  2.5037474447818703e-01  1.2013963435742393e-01  1.2055485219067104e-01  4.7902173898105409e-02  1.9295815272402650e-01  1.9053188426924519e-01  1.9271635112685098e-01  1.9283815976770266e-01  5.3968765860862918e-02  5.3039225126503574e-02  5.0026902456861803e-02  1.2931061195468818e-01  1.1845860529515434e-01  2.5236429398746346e-01  2.5637330716481643e-01  1.9332540666097403e-01  1.9166974554501137e-01  1.2149344175715279e-01  1.8916660557089596e-01  1.9258034625013457e-01  2.5608331831600750e-01  2.5210155447479804e-01  3.3874256665056141e-01  5.6096331147436007e-02  5.4164910244030542e-02  5.2348699954708852e-02  5.6799137758384466e-02  5.6784699749146170e-02  5.4334081090889962e-02  5.0544828383735925e-02  5.0575827122809607e-02  2.9192084971135377e-02  2.9190694312164072e-02  5.2349292492005012e-02  5.2351447344743826e-02  5.4121534897002381e-03  5.4124794816840733e-03  3.4159903427351473e-01  3.5064924366357597e-01  3.5069402296310942e-01  3.5057177571694786e-01  3.5079285726970244e-01  5.1816159860581405e-02  3.4174392035920098e-01  3.4204257164666213e-01  3.5124740618240080e-01  3.4790394839830258e-01  3.5113609062669177e-01  3.5098744448546965e-01  5.7806696890832864e-02  2.3273315153148164e-01  1.3560646572913518e-01  2.0452618369535577e-01  2.0202800647347202e-01  1.4388373145581404e-01  2.0285484293064332e-01  2.0274903941011477e-01  2.0171810775919322e-01  2.0422214629621963e-01  2.0232244864498142e-01  2.0115018190337874e-01  3.4195574238978066e-01  3.4225883372692728e-01  3.4186212541517874e-01  3.4225514647878252e-01  3.4183342713297987e-01  1.7116411794795949e-02  1.7116407337552014e-02  1.4109474931998864e-01  1.4155409379093090e-01  1.2823347222027504e-01  3.4283312972402735e-01  3.4261059029183860e-01  3.4291780944749972e-01  3.4245704050680831e-01  1.4046001895216009e-01  1.4238385134901738e-01  5.1928047358772683e-02  5.1925867162002967e-02  1.2884193554191689e-01  1.2929385581816130e-01  3.4667613116481077e-01  2.8325156873729185e-01  2.8353688243265679e-01  2.8594913253206999e-01  2.6583718728247002e-01  5.1977264452744448e-02  5.1831930715528010e-02  3.4643530325592770e-01  2.7728595612694629e-01  3.4644291167986446e-01  3.4735606941224101e-01  3.5176377855991880e-01  3.4768339944810150e-01  3.4776951915393134e-01  3.4771569610243303e-01  1.4569529217742558e-01  1.4571602495654457e-01  1.4091200377508065e-01  1.3923768017191013e-01  4.0917105016834071e-02  4.0915424672481049e-02  2.0867041194291031e-01  1.1679449694523195e-01  1.1679068392586091e-01  1.4599455583796120e-01  1.4600714671790643e-01  1.1709028189411892e-01  1.1709398591444510e-01  1.1982506435477557e-01  1.1982921612354624e-01  2.9532584708866250e-01  2.9361026527177803e-01  2.9345460425793624e-01  2.9546859777116485e-01  1.2039239136475054e-01  1.2041694159358893e-01  1.9949139101593030e-01  1.9988703842270270e-01  1.0631796452678423e-01  2.4702196819902350e-02  2.4703253057076265e-02  1.4661241992684745e-01  1.4664792318529921e-01  1.9930963352059314e-01  1.9932486994596862e-01  2.0090315774972872e-01  2.0089621334134725e-01  2.9248313139796456e-01  2.9707066317502961e-01  2.9369673575838973e-01  2.9666061387488685e-01  1.7635970259018108e-01  1.7636669222250140e-01  1.7155947817815193e-01  1.7166357355640838e-01  1.0306172961002665e-01  1.0460369960765220e-01  1.0364131779786937e-02  1.0363311175835620e-02  3.6159490216848711e-01  3.6161440145638718e-01  3.6174548838238513e-01  3.6163088749292566e-01  2.9613018213157316e-02  2.9611995164640019e-02  2.2353839655522290e-01  2.2342288403642582e-01  2.2323009459539897e-01  2.2325348149756252e-01  3.6225814344533785e-01  3.6228282225681396e-01  3.6437688671284735e-01  2.2494936557458531e-01  2.2681394709125854e-01  4.2610578062392122e-02  4.2610447226810698e-02  2.7978435247585653e-01  2.2461324018140377e-01  2.2451416455567205e-01  2.7977559020853715e-01  2.7976546901704213e-01  3.8732030151633082e-02  2.8013290783221056e-01  2.8023879714880623e-01  2.2647842495747791e-01  2.2465264291474393e-01  2.7984549647427226e-01  2.2767233979022053e-01  2.2764382308349626e-01  2.2541750245960779e-01  2.0677494817741379e-01  1.7913635068729217e-01  1.7911877261330769e-01  3.8730404643714161e-02  9.7210004787775302e-03  9.7211407415996667e-03  1.9109007861445781e-01  1.8940820734265273e-01  1.9132790891176660e-01  2.7404933993890473e-01  2.7214658285566851e-01  2.7396241220631096e-01  2.7418916930363252e-01  2.7156218472514232e-01  2.7508569431066315e-01  2.7183120370624259e-01  2.7464913358367044e-01  1.1499488855472409e-01  1.1499663538156707e-01  4.0930073837570274e-02  4.0933984973907558e-02  1.1262019239585707e-02  1.1261396377416105e-02  1.8197216087879017e-01  1.8200920960097447e-01  8.7493709472863737e-02  1.0549857047369819e-02  1.0549205962941498e-02  1.1193018107622008e-01  3.6111331776886768e-01  7.8075163633150646e-02  7.8071390844502958e-02  2.9836571782933097e-01  2.8281072629183346e-01  2.8283664850690265e-01  2.8303109724904285e-01  2.8262052001975663e-01  1.1240787396834975e-01  1.1241389424248845e-01  3.1278170226093679e-02  3.1279206077056580e-02  2.3069885596876452e-01  2.0094706599067388e-01  2.8972538756947330e-01  2.8969002033491220e-01  2.8989683857695331e-01  2.8986143184031404e-01  2.8363779397657757e-01  2.8357680738253038e