<?xml version="1.0"?>
<VTKFile type="UnstructuredGrid"  version="0.1"  >
<UnstructuredGrid>
<Piece  NumberOfPoints="1251" NumberOfCells="2404">
<Points>
<DataArray  type="Float64"  NumberOfComponents="3"  format="ascii">0 0 0  0 1 0  1 1 0  1 0 0  1.1 -0.1 0  -0.1 -0.1 0  1.1 1.1 0  -0.1 1.1 0  0.5000462588637948 0.5000711483329862 0  0.2478272255377172 0.5436696601125803 0  0 0.9499999999997918 0  0 0.8999999999995836 0  0 0.8499999999996529 0  0 0.7999999999999998 0  0 0.7500000000003466 0  0 0.7000000000006934 0  0 0.6500000000010401 0  0 0.6000000000013869 0  0 0.5500000000017335 0  0 0.5000000000020587 0  0 0.4500000000018723 0  0 0.4000000000016644 0  0 0.3500000000014564 0  0 0.3000000000012483 0  0 0.2500000000010403 0  0 0.2000000000008322 0  0 0.1500000000006241 0  0 0.100000000000416 0  0 0.05000000000020799 0  0.04999999999989965 0 0  0.09999999999981467 0 0  0.1499999999997036 0 0  0.1999999999995579 0 0  0.2499999999994121 0 0  0.2999999999992664 0 0  0.3499999999991206 0 0  0.3999999999989749 0 0  0.4499999999988292 0 0  0.4999999999986943 0 0  0.5499999999988151 0 0  0.5999999999989468 0 0  0.6499999999990784 0 0  0.69999999999921 0 0  0.7499999999993417 0 0  0.7999999999994734 0 0  0.8499999999996051 0 0  0.8999999999997368 0 0  0.9499999999998684 0 0  1 0.04999999999989965 0  1 0.09999999999981467 0  1 0.1499999999997036 0  1 0.1999999999995579 0  1 0.2499999999994121 0  1 0.2999999999992664 0  1 0.3499999999991206 0  1 0.3999999999989749 0  1 0.4499999999988292 0  1 0.4999999999986943 0  1 0.5499999999988151 0  1 0.5999999999989468 0  1 0.6499999999990784 0  1 0.69999999999921 0  1 0.7499999999993417 0  1 0.7999999999994734 0  1 0.8499999999996051 0  1 0.8999999999997368 0  1 0.9499999999998684 0  0.9499999999997918 1 0  0.8999999999995836 1 0  0.8499999999996529 1 0  0.7999999999999998 1 0  0.7500000000003466 1 0  0.7000000000006934 1 0  0.6500000000010401 1 0  0.6000000000013869 1 0  0.5500000000017335 1 0  0.5000000000020587 1 0  0.4500000000018723 1 0  0.4000000000016644 1 0  0.3500000000014564 1 0  0.3000000000012483 1 0  0.2500000000010403 1 0  0.2000000000008322 1 0  0.1500000000006241 1 0  0.100000000000416 1 0  0.05000000000020799 1 0  -0.1 1.05000000000004 0  -0.1 1.000000000000079 0  -0.1 0.9500000000001624 0  -0.1 0.9000000000003032 0  -0.1 0.850000000000444 0  -0.1 0.8000000000005848 0  -0.1 0.7500000000007256 0  -0.1 0.7000000000008665 0  -0.1 0.6500000000010508 0  -0.1 0.6000000000012352 0  -0.1 0.5500000000014196 0  -0.1 0.500000000001539 0  -0.1 0.4500000000014195 0  -0.1 0.4000000000013 0  -0.1 0.3500000000011588 0  -0.1 0.3000000000010178 0  -0.1 0.2500000000008986 0  -0.1 0.2000000000007579 0  -0.1 0.1500000000006174 0  -0.1 0.1000000000005272 0  -0.1 0.05000000000040083 0  -0.1 2.671196597248127e-13 0  -0.1 -0.0499999999998666 0  -0.0500000000000906 -0.1 0  -1.730560139634463e-13 -0.1 0  0.04999999999975802 -0.1 0  0.09999999999961506 -0.1 0  0.1499999999994613 -0.1 0  0.199999999999302 -0.1 0  0.2499999999991446 -0.1 0  0.2999999999990088 -0.1 0  0.3499999999988296 -0.1 0  0.3999999999986936 -0.1 0  0.4499999999985143 -0.1 0  0.4999999999984002 -0.1 0  0.5499999999985247 -0.1 0  0.5999999999986493 -0.1 0  0.6499999999987955 -0.1 0  0.6999999999989417 -0.1 0  0.7499999999990659 -0.1 0  0.7999999999992116 -0.1 0  0.8499999999993573 -0.1 0  0.8999999999994526 -0.1 0  0.949999999999584 -0.1 0  0.9999999999997226 -0.1 0  1.049999999999861 -0.1 0  1.1 -0.0500000000000906 0  1.1 -1.730560139634463e-13 0  1.1 0.04999999999975802 0  1.1 0.09999999999961506 0  1.1 0.1499999999994613 0  1.1 0.199999999999302 0  1.1 0.2499999999991446 0  1.1 0.2999999999990088 0  1.1 0.3499999999988296 0  1.1 0.3999999999986936 0  1.1 0.4499999999985143 0  1.1 0.4999999999984002 0  1.1 0.5499999999985247 0  1.1 0.5999999999986493 0  1.1 0.6499999999987955 0  1.1 0.6999999999989417 0  1.1 0.7499999999990659 0  1.1 0.7999999999992116 0  1.1 0.8499999999993573 0  1.1 0.8999999999994526 0  1.1 0.949999999999584 0  1.1 0.9999999999997226 0  1.1 1.049999999999861 0  1.05000000000004 1.1 0  1.000000000000079 1.1 0  0.9500000000001624 1.1 0  0.9000000000003032 1.1 0  0.850000000000444 1.1 0  0.8000000000005848 1.1 0  0.7500000000007256 1.1 0  0.7000000000008665 1.1 0  0.6500000000010508 1.1 0  0.6000000000012352 1.1 0  0.5500000000014196 1.1 0  0.500000000001539 1.1 0  0.4500000000014195 1.1 0  0.4000000000013 1.1 0  0.3500000000011588 1.1 0  0.3000000000010178 1.1 0  0.2500000000008986 1.1 0  0.2000000000007579 1.1 0  0.1500000000006174 1.1 0  0.1000000000005272 1.1 0  0.05000000000040083 1.1 0  2.671196597248127e-13 1.1 0  -0.0499999999998666 1.1 0  0.2532928408298726 0.5679176430805719 0  0.2619153411901745 0.5912287345672964 0  0.2733960928708806 0.613278532239603 0  0.287340733214942 0.6338651098692569 0  0.3033392089629464 0.6529060054157582 0  0.3210451370913563 0.6703749697339574 0  0.3403123130770576 0.6861081535152409 0  0.3608211125010082 0.7001910909042603 0  0.3823587213614964 0.7126487715947697 0  0.4048251424921027 0.7233420942244768 0  0.4280969651522369 0.7321421258408152 0  0.4520148636629626 0.7389940044413812 0  0.4764055822042572 0.7438985523810557 0  0.5011282609213151 0.7466543083830917 0  0.5260000125894562 0.7469381134737004 0  0.5507671136595883 0.7446659298311457 0  0.5751478504028072 0.7397719236434165 0  0.5988280701600305 0.7321846878149846 0  0.6214706033509151 0.7219078085992117 0  0.6428608905052824 0.7092295376602334 0  0.6628124886434 0.6943896732540166 0  0.6810860521908975 0.6775275508778457 0  0.6974725892362506 0.6588268366992638 0  0.7118009994279892 0.6385046311024627 0  0.7239300325222591 0.6167977778389586 0  0.7336830300081509 0.5939242240795787 0  0.7408106526166474 0.5701027424418197 0  0.745300841678151 0.5456432919297626 0  0.7472246123670936 0.5208466325458022 0  0.7465774027252918 0.4959848493001597 0  0.7433472599881507 0.4713201916278029 0  0.7379849443910713 0.4470275931020453 0  0.730635776090233 0.4232583443450219 0  0.7213774482367845 0.400164704481727 0  0.7102983011751609 0.3778868209254934 0  0.6975108691412487 0.3565444290261658 0  0.6831206384375919 0.3362513197050251 0  0.6670839494743807 0.3172366320903353 0  0.6492697810980324 0.2998788967216879 0  0.6298478542928312 0.2843494928058777 0  0.6089414325121126 0.2708896986851946 0  0.5866496157168446 0.2598901401564904 0  0.563141572883884 0.2518246284202083 0  0.5387580945305082 0.2470041741607072 0  0.5139661438946908 0.2452225941943616 0  0.4891401764476087 0.2464560132062162 0  0.4646425261461774 0.2506688207326507 0  0.4407168676905819 0.2574399340050771 0  0.4174833019639601 0.2663115285375495 0  0.3950732255498202 0.2770949875583277 0  0.3737363240863213 0.2898767100466407 0  0.3535369305306301 0.3043943133736728 0  0.3346098860536831 0.3205390276796733 0  0.3171236914739308 0.3382313894179051 0  0.3012397514281786 0.3573759756602983 0  0.287079475588056 0.3778269715160962 0  0.2746814820817646 0.3993894075729155 0  0.2643112334743629 0.4219954018991334 0  0.2559399004688902 0.4454120307425236 0  0.2497489256603074 0.4694936811576468 0  0.2461092080201119 0.4940834909390933 0  0.2454194343585289 0.5189299765911524 0  0.5467816853363873 0.2705209010292802 0  0.625417446733985 0.3092236809571877 0  0.4580721528256205 0.2731129174160077 0  0.2701696001941969 0.5505421843797579 0  0.3122996976370303 0.6326412287292508 0  0.2736962838065429 0.4628329150253913 0  0.6573494761236126 0.6701374914310698 0  0.7099073553448755 0.5968268436681429 0  0.7269207414071575 0.5096274386837092 0  0.5813300851991658 0.7155177970487572 0  0.4902085907388492 0.722100272379378 0  0.3123126434025071 0.3798808067840051 0  0.3732571469632164 0.3108287739489206 0  0.4240885672338689 0.7075806940693424 0  0.6846031553516368 0.3770079988781319 0  0.7151929767642572 0.4410796040567831 0  0.3626214210119597 0.6753936855545314 0  0.3402530783394718 0.3435968302520596 0  0.415522388399869 0.2901234259991014 0  0.2890769965947794 0.4196796768512962 0  0.6586211282533126 0.3406242124587233 0  0.6874185798708199 0.6359159308035285 0  0.5349280081880261 0.7258232062586352 0  0.7231351764601545 0.5544728709825386 0  0.6223119491384661 0.6980420000785809 0  0.5026305676621987 0.2673322467243268 0  0.2667604144352236 0.5058796919499943 0  0.2856789632902871 0.5928919132104651 0  0.592265448424643 0.2841044406762674 0  0.3828188902821008 0.6892074507622316 0  0.3858802382584133 0.6651796929959228 0  0.3647389433129258 0.6504965415347345 0  0.3889845632878314 0.6403033435136591 0  0.3655290085042125 0.6247317448587804 0  0.3948613606460552 0.6119735538445001 0  0.4199546737120709 0.6297183041266734 0  0.3688993550179424 0.5971975683119235 0  0.3947613997652476 0.5820561378720669 0  0.3618348696324811 0.563392348905321 0  0.4299725503587774 0.5936189504912633 0  0.454069521401806 0.6351972083794886 0  0.4794791706733988 0.5973179162799502 0  0.4902102086974595 0.637544116573313 0  0.5215931518976402 0.6076630486566652 0  0.5521966339102049 0.6433456944697523 0  0.5672012784611825 0.6066948976678735 0  0.4108050490510394 0.5467223391041041 0  0.3730574755188404 0.5199909081975429 0  0.588529176289652 0.6369617958010044 0  0.6110905321582271 0.6114390860986998 0  0.5914252930338839 0.5727158154678342 0  0.6384178622174496 0.5786683413607698 0  0.6166468425624811 0.5406434381746504 0  0.6546865652725909 0.5448053159920488 0  0.6439127254136555 0.5059214559005456 0  0.6004103988445405 0.502628721189866 0  0.6305367742803474 0.4669406380562595 0  0.5840033947996378 0.4631864935261703 0  0.61580947894834 0.4287794567167436 0  0.5690033202690179 0.422985652470999 0  0.5999414698965632 0.3899425028851716 0  0.5532188268571615 0.384103079473929 0  0.5804396729707766 0.356478472251422 0  0.5437475629842394 0.3452569151968226 0  0.516444432948394 0.3765440507224206 0  0.5013728621489411 0.3377497167961674 0  0.4802627640449073 0.3680251097895105 0  0.4659995442611625 0.3367032055382573 0  0.44081294847536 0.3582226912710029 0  0.455954053119
[...]
<PointData  Scalars="v"> 
<DataArray  type="Float64"  Name="v"  format="ascii">0.0000000000000000e+00  0.0000000000000000e+00  0.0000000000000000e+00  0.0000000000000000e+00  0.0000000000000000e+00  0.0000000000000000e+00  0.0000000000000000e+00  0.0000000000000000e+00  3.8945510431535574e-05  3.1941786296728687e-05  0.0000000000000000e+00  0.0000000000000000e+00  0.0000000000000000e+00  0.0000000000000000e+00  0.0000000000000000e+00  0.0000000000000000e+00  0.0000000000000000e+00  0.0000000000000000e+00  0.0000000000000000e+00  0.0000000000000000e+00  0.0000000000000000e+00  0.0000000000000000e+00  0.0000000000000000e+00  0.0000000000000000e+00  0.0000000000000000e+00  0.0000000000000000e+00  0.0000000000000000e+00  0.0000000000000000e+00  0.0000000000000000e+00  0.0000000000000000e+00  0.0000000000000000e+00  0.0000000000000000e+00  0.0000000000000000e+00  0.0000000000000000e+00  0.0000000000000000e+00  0.0000000000000000e+00  0.0000000000000000e+00  0.0000000000000000e+00  0.0000000000000000e+00  0.0000000000000000e+00  0.0000000000000000e+00  0.0000000000000000e+00  0.0000000000000000e+00  0.0000000000000000e+00  0.0000000000000000e+00  0.0000000000000000e+00  0.0000000000000000e+00  0.0000000000000000e+00  0.0000000000000000e+00  0.0000000000000000e+00  0.0000000000000000e+00  0.0000000000000000e+00  0.0000000000000000e+00  0.0000000000000000e+00  0.0000000000000000e+00  0.0000000000000000e+00  0.0000000000000000e+00  0.0000000000000000e+00  0.0000000000000000e+00  0.0000000000000000e+00  0.0000000000000000e+00  0.0000000000000000e+00  0.0000000000000000e+00  0.0000000000000000e+00  0.0000000000000000e+00  0.0000000000000000e+00  0.0000000000000000e+00  0.0000000000000000e+00  0.0000000000000000e+00  0.0000000000000000e+00  0.0000000000000000e+00  0.0000000000000000e+00  0.0000000000000000e+00  0.0000000000000000e+00  0.0000000000000000e+00  0.0000000000000000e+00  0.0000000000000000e+00  0.0000000000000000e+00  0.0000000000000000e+00  0.0000000000000000e+00  0.0000000000000000e+00  0.0000000000000000e+00  0.0000000000000000e+00  0.0000000000000000e+00  0.0000000000000000e+00  0.0000000000000000e+00  0.0000000000000000e+00  0.0000000000000000e+00  0.0000000000000000e+00  0.0000000000000000e+00  0.0000000000000000e+00  0.0000000000000000e+00  0.0000000000000000e+00  0.0000000000000000e+00  0.0000000000000000e+00  0.0000000000000000e+00  0.0000000000000000e+00  0.0000000000000000e+00  0.0000000000000000e+00  0.0000000000000000e+00  0.0000000000000000e+00  0.0000000000000000e+00  0.0000000000000000e+00  0.0000000000000000e+00  0.0000000000000000e+00  0.0000000000000000e+00  0.0000000000000000e+00  0.0000000000000000e+00  0.0000000000000000e+00  0.0000000000000000e+00  0.0000000000000000e+00  0.0000000000000000e+00  0.0000000000000000e+00  0.0000000000000000e+00  0.0000000000000000e+00  0.0000000000000000e+00  0.0000000000000000e+00  0.0000000000000000e+00  0.0000000000000000e+00  0.0000000000000000e+00  0.0000000000000000e+00  0.0000000000000000e+00  0.0000000000000000e+00  0.0000000000000000e+00  0.0000000000000000e+00  0.0000000000000000e+00  0.0000000000000000e+00  0.0000000000000000e+00  0.0000000000000000e+00  0.0000000000000000e+00  0.0000000000000000e+00  0.0000000000000000e+00  0.0000000000000000e+00  0.0000000000000000e+00  0.0000000000000000e+00  0.0000000000000000e+00  0.0000000000000000e+00  0.0000000000000000e+00  0.0000000000000000e+00  0.0000000000000000e+00  0.0000000000000000e+00  0.0000000000000000e+00  0.0000000000000000e+00  0.0000000000000000e+00  0.0000000000000000e+00  0.0000000000000000e+00  0.0000000000000000e+00  0.0000000000000000e+00  0.0000000000000000e+00  0.0000000000000000e+00  0.0000000000000000e+00  0.0000000000000000e+00  0.0000000000000000e+00  0.0000000000000000e+00  0.0000000000000000e+00  0.0000000000000000e+00  0.0000000000000000e+00  0.0000000000000000e+00  0.0000000000000000e+00  0.0000000000000000e+00  0.0000000000000000e+00  0.0000000000000000e+00  0.0000000000000000e+00  0.0000000000000000e+00  0.0000000000000000e+00  0.0000000000000000e+00  0.0000000000000000e+00  0.0000000000000000e+00  0.0000000000000000e+00  0.0000000000000000e+00  0.0000000000000000e+00  0.0000000000000000e+00  0.0000000000000000e+00  0.0000000000000000e+00  0.0000000000000000e+00  0.0000000000000000e+00  0.0000000000000000e+00  0.0000000000000000e+00  3.2481310210446722e-05  3.3985569391818811e-05  3.5536029147217341e-05  3.7640264532883261e-05  4.0053471607815819e-05  4.2162323568342401e-05  4.3948707360960293e-05  4.5366430966983657e-05  4.6400449677503224e-05  4.6705735246844623e-05  4.6382378062560456e-05  4.5719350481610626e-05  4.4321675266465037e-05  4.2554385633505251e-05  4.0746508960857264e-05  3.8755667508220821e-05  3.6775135098790173e-05  3.5222911426569622e-05  3.4031541719292200e-05  3.3085977429574872e-05  3.2378027034149578e-05  3.2091150226402635e-05  3.2315909003930665e-05  3.2878598536481296e-05  3.3926379816807901e-05  3.5397030270604952e-05  3.7011210028023045e-05  3.8771590383799376e-05  4.0643552350214758e-05  4.2463120670398082e-05  4.4128299996775836e-05  4.5434350350012143e-05  4.6321761743113600e-05  4.6382760814914803e-05  4.5870737799516177e-05  4.5017320572220224e-05  4.3455185739655315e-05  4.1437749718805493e-05  3.9638415429981203e-05  3.7193757114247348e-05  3.5187075072415786e-05  3.3458442801658347e-05  3.2336095500601950e-05  3.1994615839059956e-05  3.2284786243500147e-05  3.3175807951659359e-05  3.4457528061940385e-05  3.6172139548535615e-05  3.7989663580897003e-05  3.9528863416077714e-05  4.1326539196181414e-05  4.1986412954814923e-05  4.2380849366375096e-05  4.2337675035031695e-05  4.1972093246629138e-05  4.0459763762299052e-05  3.9073685664070433e-05  3.7787450160938381e-05  3.5785528668718195e-05  3.4153810167926795e-05  3.2855261269417020e-05  3.2047290737971709e-05  2.9235357148565151e-05  3.3676862843031915e-05  3.1772786298772295e-05  2.9362142723518775e-05  3.4692586025881589e-05  3.1370416071770719e-05  2.9373220011047187e-05  3.1360786848863732e-05  3.6730264154949937e-05  3.2233630002807905e-05  3.7779587169216432e-05  3.5887379206917756e-05  3.6983079501223314e-05  4.0281735578902974e-05  3.9265246881848391e-05  4.0010805591002182e-05  3.8805661054411696e-05  3.7050714255815008e-05  3.4313337847729320e-05  3.3916280606505661e-05  3.6932462755890917e-05  2.9666760305607342e-05  3.5419300617501223e-05  3.3886002348638415e-05  3.0402201356463222e-05  2.9717108578332510e-05  2.9562188459475587e-05  3.1260777539173355e-05  3.1133769159006155e-05  3.9972485447794480e-05  3.8331852764832703e-05  3.7197964317581756e-05  3.8119223550309563e-05  3.6774522403788146e-05  3.8093207228018399e-05  3.9097595120664197e-05  3.6706158526617496e-05  3.7448214218257117e-05  3.5674392279182327e-05  3.8392337049751825e-05  3.9206164201489879e-05  3.8526964077109082e-05  3.8576600616063562e-05  3.7807916237785640e-05  3.6148663463138954e-05  3.6473667029309426e-05  3.7264799348914399e-05  3.5901839483203520e-05  3.4560749618904427e-05  3.4511318939398521e-05  3.6917687490416123e-05  3.5032890827119136e-05  3.7496171470341569e-05  3.6254047565132289e-05  3.8225430263315008e-05  3.8843916706222691e-05  3.9057647282457873e-05  3.8781350963255271e-05  3.8938615202993080e-05  3.8096440921668015e-05  3.7530008344886429e-05  3.6472781191236704e-05  3.5546338326656663e-05  3.4537450951191717e-05  3.6001704334303557e-05  3.4227589165080969e-05  3.5918451321339761e-05  3.4672565473629418e-05  3.6030542321908307e-05  3.6872523256082921e-05  3.6778698417749008e-05  3.7245137393004803e-05  3.6779582582460844e-05  3.4070913730636900e-05  3.4405667368737414e-05  3.7292253883151110e-05  3.9264189221472213e-05  3.8821862658757728e-05  3.6640278693857856e-05  3.6028489769946246e-05  3.6085508882700062e-05  3.4113679551010336e-05  3.5994820092989253e-05  3.6942670102116089e-05  3.1868214869050958e-05  3.2247455087715252e-05  3.2668707482261963e-05  3.6012357132157709e-05  3.8419939344477256e-05  3.8772359395232569e-05  3.4677171035303643e-05  3.4482164538231374e-05  3.6998716805373257e-05  3.3338807964810459e-05  3.8536029704088241e-05  3.8753444793066927e-05  3.8784192403500840e-05  3.2424447611131110e-05  3.4656253204872279e-05  3.3229401280066199e-05  3.7451508431943558e-05  3.4248979489703960e-05  3.9071804355502213e-05  3.3941703263228433e-05  3.3352472125107457e-05  3.0816598663457774e-05  3.4850359299048616e-05  3.1970932171612795e-05  3.7665307507853273e-05  3.4952884866597272e-05  3.1945084037544657e-05  3.2644780727769775e-05  3.1159638167602094e-05  3.5991788166183789e-05  3.5955855897517476e-05  3.4908148360471862e-05  3.9162407071172250e-05  3.8716553794627310e-05  3.0312322350855475e-05  3.0618473773269088e-05  3.5440440312652603e-05  3.5036181128522061e-05  3.4839052834636110e-05  3.2254396718450625e-05  3.0558957371180692e-05  3.6104896065142380e-05  3.8682122915043412e-05  3.2256319414431290e-05  3.7901360701274887e-05  3.7615980473804575e-05  3.6505601795306015e-05  3.7681712413105099e-05  3.7909648311929544e-05  3.6919740188045544e-05  3.7318253767647911e-05  3.7440042510025265e-05  4.0315345012015223e-05  3.8233097503779889e-05  4.0450190460623747e-05  4.0009995807796055e-05  3.8429692649448825e-05  3.6060103170494002e-05  3.9182870941847523e-05  3.6886572253927146e-05  3.6905359566023257e-05  3.3129408479423864e-05  3.5050384674909322e-05  3.4850522175411695e-05  3.2556768443276226e-05  3.3154252671355540e-05  3.4119371914384289e-05  3.3292414747926181e-05  3.8448031873386426e-05  3.7600013371787021e-05  3.8961158051757034e-05  3.5154679773787799e-05  3.5654010921992905e-05  2.9722525303728953e-05  3.0748816504513352e-05  2.9353120477840118e-05  3.0359437717205572e-05  3.3560549693205204e-05  3.4584071626777188e-05  3.5903160419234074e-05  3.2517067769936832e-05  3.2599623402501737e-05  3.2784583604689013e-05  3.2506932858981729e-05  3.9049406922070629e-05  3.0373915937640267e-05  3.1248071494512475e-05  3.0465926649027934e-05  3.1459004863701901e-05  3.8490834155232917e-05  2.9260656169553654e-05  3.8650039846491074e-05  2.9163954744713242e-05  3.0126963274522318e-05  3.6149731740424834e-05  3.0097036242034096e-05  2.9888093102404420e-05  3.1992700928356184e-05  3.2532905631589726e-05  3.8335148067789371e-05  3.8535341151667337e-05  3.1296695383787004e-05  4.0857892258231423e-05  3.6637194330023761e-05  3.9019340029478451e-05  3.8189830350135401e-05  3.7126163584877852e-05  3.8130092310719428e-05  3.7204575411679559e-05  3.5511664717459867e-05  3.7358649079496596e-05  3.5510351782609462e-05  3.0312784922319660e-05  3.1066981667286593e-05  3.1512408599179975e-05  3.0118945026525921e-05  3.7952538474769241e-05  3.5458266178660092e-05  3.3539965630247439e-05  3.3342340812167333e-05  3.4348903107674748e-05  3.0157450802035796e-05  3.2003317532187188e-05  3.2196343853221458e-05  3.8984790530161329e-05  3.0573938358089195e-05  3.0315314165485267e-05  3.2591843196699027e-05  3.8691118196443822e-05  3.3814590213811464e-05  3.8308588655621372e-05  3.3124894068168692e-05  4.0335199549903327e-05  3.9024935532193798e-05  3.2875832260694795e-05  3.6213757973239262e-05  3.3621938486331192e-05  3.9264475737239684e-05  3.2560070776713951e-05  3.6038839218691701e-05  3.7967051928598903e-05  3.9004966297170807e-05  3.9117372081369342e-05  3.0276636693762592e-05  3.2541448545836249e-05  3.8414422700438090e-05  3.7627143784968412e-05  3.6001698886441717e-05  3.9683343916288832e-05  3.4989423373150692e-05  3.5431682685296986e-05  3.1107136191218559e-05  3.3259494610648650e-05  3.6740147005146328e-05  3.3092780047929869e-05  3.2341481984818608e-05  3.6363870061110145e-05  3.6153965134174868e-05  3.8988706223421418e-05  3.8853399865861236e-05  3.4581882819843941e-05  3.6371782610779826e-05  3.6849116616017386e-05  3.5467025671278672e-05  3.1230185659465704e-05  3.5409974023677197e-05  3.4119205157119974e-05  3.7517207762639944e-05  3.4155447355660058e-05  4.7640738160743994e-05  4.7479902353089978e-05  4.5631826997088442e-05  3.5018970693808058e-05  5.1498855325594917e-05  4.4191180017787072e-05  3.9804478411542343e-05  5.1757171793694653e-05  4.4669400812373270e-05  3.6320447473807511e-05  3.8257260760873536e-05  3.8118209378301613e-05  3.5093614215472772e-05  3.5199190594537622e-05  3.5984213983587156e-05  3.4851534425512323e-05  3.6939975523630944e-05  8.9534509474852287e-06  5.1456110678642598e-05  8.4479758462967971e-06  8.5895616597212196e-06  7.9343339054575529e-06  9.5539936913347030e-06  5.9796405540274420e-06  4.9849354387804072e-05  7.9804562343321821e-06  4.1532115232974199e-05  4.1605282973207670e-05  5.9990738219792511e-06  3.8186831686085381e-05  4.5885863032897370e-05  4.6159474391248733e-05  4.0852210561954064e-05  1.3483881299845846e-05  1.3402385475955290e-05  9.2192493008455187e-06  9.5573812253106325e-06  1.1157083204068247e-05  1.1691330676421411e-05  9.5390673872869767e-06  8.7502929405210457e-06  1.3883445343290125e-05  1.1945145526825218e-05  9.0210570325117179e-06  1.0098143616919097e-05  3.6891014398227991e-06  6.0682354081230564e-06  5.1589864901989172e-06  5.9072376138287115e-06  5.0997249282968709e-06  3.4619795953818207e-06  5.1965288357580087e-06  6.3431322857550227e-06  3.4996820198002664e-05  3.3885063131101182e-05  3.3938652825922490e-05  3.1270094446512897e-05  3.1461754084083448e-05  3.1214917860283956e-05  2.7887833556051849e-05  2.8903883220437482e-05  2.4027226504100197e-05  2.4619481016575217e-05  2.9380775133964935e-05  2.5344276844230110e-05  3.1020089541559298e-05  2.6183864471217544e-05  3.0954005735436711e-05  2.6656633166089963e-05  3.1420729108024939e-05  2.5706330948695865e-05  3.0950284889244790e-05  2.5446646001538294e-05  2.9399637753763663e-05  3.4973489162228266e-05  3.2585191487346223e-05  3.8385701977144774e-05  3.4958295497970649e-05  2.3438784015152118e-05  4.1647812113434080e-05  3.6665146634397294e-05  3.0196778086316898e-05  2.1647232939085600e-05  4.2491582425163596e-05  3.7150487278411653e-05  4.3583336610909738e-05  3.6748319343774163e-05  4.2867478730601203e-05  3.5227264783098042e-05  3.9847310447768546e-05  3.5850093614826717e-05  1.9614818733675903e-05  1.7425685106628181e-05  2.4305369835900418e-05  2.0347410088582047e-05  3.9994546218247740e-05  1.9062428417974970e-05  3.2872082586309204e-05  3.7644146361443765e-05  3.0458116904635148e-05  2.9628745999128453e-05  3.3203956861408007e-05  2.5402816089426669e-05  2.8806221676673195e-05  3.5401124344151033e-05  3.2324438932004252e-05  2.4547529604891745e-05  2.7632626674272898e-05  3.3129098516557048e-05  2.9245439948173200e-05  2.3970518892485765e-05  2.5191089248543177e-05  2.0509084498797990e-05  2.2069408855015705e-05  2.6991658471920456e-05  2.3203802398225810e-05  2.7594476919215451e-05  2.4621306547859817e-05  2.0122873841801407e-05  2.0821224687155613e-05  2.4493479199838092e-05  2.1007396636967879e-05  2.4747224440928816e-05  1.6811137772411164e-05  2.0880779668671215e-05  2.5518411664132109e-05  2.0078337815249318e-05  2.4003810250484098e-05  2.8233259477334600e-05  1.7326972676144228e-05  4.7872598461340080e-05  1.8360460546488343e-05  2.2346965773240838e-05  2.7972438172609347e-05  2.6583043838545918e-05  3.3030872938211578e-05  3.1163248783611136e-05  2.4319926187703679e-05  2.9116255441643132e-05  3.5598112594693870e-05  3.4359464708262073e-05  1.4987778169063394e-05  2.0353291330500746e-05  3.3072695982213895e-05  1.6190129211134897e-05  4.6741637450533654e-05  3.4228139588372631e-05  4.0785401370236184e-05  3.7659541305388364e-05  4.3797278480391031e-05  4.1944903796263812e-05  3.4054571632829020e-05  3.7152220449159198e-05  4.3783331133483993e-05  3.9222729692890738e-05  4.5223980477906673e-05  4.1229656852383853e-05  3.4327903258221513e-05  3.5118141490305744e-05  4.0416865385121141e-05  3.4949319777843637e-05  3.9353142082070211e-05  3.3850149536989050e-05  3.7537387519762790e-05  3.2043469925657067e-05  3.4755330607781571e-05  2.9314394715447794e-05  3.1300373972763383e-05  2.6113620719902180e-05  2.3358917647973317e-05  2.7985218199097348e-05  2.0228885896364926e-05  3.6429240238829311e-05  3.2616643061543875e-05  2.7234021187465394e-05  2.8680899465790572e-05  2.2672447109481084e-05  4.2645683146213673e-05  2.3134755460144863e-05  2.8072609341011620e-05  2.3223346643579324e-05  2.8103172332651155e-05  2.3329153900308448e-05  3.7599068460768220e-05  2.2480167830613612e-05  2.8682447701430539e-05  2.3651309775634849e-05  1.7466086944859649e-05  2.8554048072376593e-05  2.5085083681824980e-05  2.9321758470469322e-05  2.5130286858810135e-05  3.0414449898943286e-05  2.5613932291476075e-05  3.0844879069553429e-05  2.6262083459125431e-05  3.2236865016497207e-05  2.6594630796163353e-05  3.1531431278372912e-05  2.5944594234425847e-05  3.0900967062736834e-05  2.4995258269380580e-05  2.9485701075678935e-05  3.5152988769159721e-05  3.3070407525696037e-05  2.7232355994299092e-05  3.0091868770109025e-05  2.4138036559186446e-05  2.6095593909975029e-05  3.1613065285928773e-05  2.6830130325090423e-05  3.1934387359850125e-05  2.6505806121543403e-05  3.1198967262908104e-05  3.6136287962777370e-05  2.0381493589319841e-05  2.4868404749097773e-05  2.9642672719566947e-05  3.5453075441587616e-05  3.3987055719571784e-05  2.7472212837138915e-05  3.0533841116576468e-05  2.4517280054019044e-05  2.7869616801864873e-05  1.9590215110029480e-05  3.8590940681790514e-05  1.8251247537807914e-05  4.0506235290976178e-05  1.6578948200852230e-05  1.4915168356629993e-05  3.6500305686995078e-05  1.4630558539312954e-05  1.9735216308680413e-05  1.6144369521572300e-05  2.9179647724390247e-05  3.3692234847630006e-05  3.0934276961130502e-05  3.1370062519415364e-05  2.1689047773794647e-05  2.6894734141451966e-05  2.1001836374029822e-05  3.4151471704308479e-05  2.1525032565992527e-05  3.3632701495479055e-05  4.3432347859922345e-05  4.4742374432949706e-05  4.2032383091911804e-05  3.2892275803325459e-05  3.9297259905476556e-05  4.0588357734231267e-05  1.9330731297606553e-05  4.4359251386555798e-05  2.1717218002265937e-05  3.7430388420081579e-05  3.7534304408567929e-05  3.4506795623526715e-05  2.6114996104245994e-05  1.3905825903545032e-05  1.1245143878860240e-05  4.1153609442282248e-05  4.1360291224086218e-05  3.8189437361098391e-05  1.8874412340287575e-05  2.0209980154554876e-05  3.4050062993061574e-05  3.2052866574611762e-05  4.0612039476269276e-05  3.2909569216894580e-05  3.2468086780799250e-05  3.6961051739858485e-05  3.4079222616470807e-05  3.6935836918163777e-05  4.0984663638789395e-05  4.0739460694197211e-05  4.8729159442494188e-05  4.9680958877191494e-05  4.6825544191256273e-05  1.3473122843555752e-05  3.6821988873609773e-05  3.1450476021634530e-05  4.5146978749395344e-05  4.8429437083798605e-05  3.6713059981719575e-05  3.3285746288478339e-05  2.0383312695886709e-05  4.7083636514504220e-05  4.5222056361707180e-05  1.7093761747758713e-05  2.5086350577919420e-05  2.0031300294095730e-05  1.2496958060772174e-05  1.5313075845960664e-05  1.2347320639868554e-05  1.4199473609196883e-05  1.3479954596666902e-05  3.4256470596069490e-05  4.3133771070205747e-05  4.4632644257274281e-05  4.1870166767205396e-05  4.2297197060176518e-05  4.5595609059178708e-05  4.6351787209306846e-05  5.0284080211545727e-05  3.2273515143684770e-05  3.5541641119487534e-05  4.0683988810444979e-05  4.4691666470583795e-05  3.5687591200373310e-05  3.9329927483615106e-05  3.4668717355218685e-05  1.1649523208470264e-05  3.7562338346304530e-05  3.7822207576290735e-05  3.9997441579231172e-05  3.6158760545407361e-05  2.1253566697593350e-05  4.2208305306013990e-05  4.1821508577839576e-05  4.4656920790655089e-05  4.2692204917851985e-05  1.3805217576967830e-05  4.1704856512556198e-05  4.2856435903901548e-05  4.8520285493198624e-05  3.6479447770320301e-05  3.6407677400650254e-05  3.7986894602580889e-05  3.6652709138647645e-05  3.5797228532985900e-05  3.5231116417474296e-05  3.4115699864848124e-05  4.7024818405150983e-05  4.7929882106093574e-05  5.0964389334954740e-05  5.0563679752930502e-05  4.0185900702599617e-05  3.9511712123911375e-05  4