<?xml version="1.0"?>
<VTKFile type="UnstructuredGrid"  version="0.1"  >
<UnstructuredGrid>
<Piece  NumberOfPoints="1008" NumberOfCells="1918">
<Points>
<DataArray  type="Float64"  NumberOfComponents="3"  format="ascii">0 0 0  0 1 0  1 1 0  1 0 0  1.1 -0.1 0  -0.1 -0.1 0  1.1 1.1 0  -0.1 1.1 0  0.3175405128940211 0.5314308390150987 0  0.5397035679925193 0.5402985888732651 0  0 0.9499999999997918 0  0 0.8999999999995836 0  0 0.8499999999996529 0  0 0.7999999999999998 0  0 0.7500000000003466 0  0 0.7000000000006934 0  0 0.6500000000010401 0  0 0.6000000000013869 0  0 0.5500000000017335 0  0 0.5000000000020587 0  0 0.4500000000018723 0  0 0.4000000000016644 0  0 0.3500000000014564 0  0 0.3000000000012483 0  0 0.2500000000010403 0  0 0.2000000000008322 0  0 0.1500000000006241 0  0 0.100000000000416 0  0 0.05000000000020799 0  0.04999999999989965 0 0  0.09999999999981467 0 0  0.1499999999997036 0 0  0.1999999999995579 0 0  0.2499999999994121 0 0  0.2999999999992664 0 0  0.3499999999991206 0 0  0.3999999999989749 0 0  0.4499999999988292 0 0  0.4999999999986943 0 0  0.5499999999988151 0 0  0.5999999999989468 0 0  0.6499999999990784 0 0  0.69999999999921 0 0  0.7499999999993417 0 0  0.7999999999994734 0 0  0.8499999999996051 0 0  0.8999999999997368 0 0  0.9499999999998684 0 0  1 0.04999999999989965 0  1 0.09999999999981467 0  1 0.1499999999997036 0  1 0.1999999999995579 0  1 0.2499999999994121 0  1 0.2999999999992664 0  1 0.3499999999991206 0  1 0.3999999999989749 0  1 0.4499999999988292 0  1 0.4999999999986943 0  1 0.5499999999988151 0  1 0.5999999999989468 0  1 0.6499999999990784 0  1 0.69999999999921 0  1 0.7499999999993417 0  1 0.7999999999994734 0  1 0.8499999999996051 0  1 0.8999999999997368 0  1 0.9499999999998684 0  0.9499999999997918 1 0  0.8999999999995836 1 0  0.8499999999996529 1 0  0.7999999999999998 1 0  0.7500000000003466 1 0  0.7000000000006934 1 0  0.6500000000010401 1 0  0.6000000000013869 1 0  0.5500000000017335 1 0  0.5000000000020587 1 0  0.4500000000018723 1 0  0.4000000000016644 1 0  0.3500000000014564 1 0  0.3000000000012483 1 0  0.2500000000010403 1 0  0.2000000000008322 1 0  0.1500000000006241 1 0  0.100000000000416 1 0  0.05000000000020799 1 0  -0.1 1.05000000000004 0  -0.1 1.000000000000079 0  -0.1 0.9500000000001624 0  -0.1 0.9000000000003032 0  -0.1 0.850000000000444 0  -0.1 0.8000000000005848 0  -0.1 0.7500000000007256 0  -0.1 0.7000000000008665 0  -0.1 0.6500000000010508 0  -0.1 0.6000000000012352 0  -0.1 0.5500000000014196 0  -0.1 0.500000000001539 0  -0.1 0.4500000000014195 0  -0.1 0.4000000000013 0  -0.1 0.3500000000011588 0  -0.1 0.3000000000010178 0  -0.1 0.2500000000008986 0  -0.1 0.2000000000007579 0  -0.1 0.1500000000006174 0  -0.1 0.1000000000005272 0  -0.1 0.05000000000040083 0  -0.1 2.671196597248127e-13 0  -0.1 -0.0499999999998666 0  -0.0500000000000906 -0.1 0  -1.730560139634463e-13 -0.1 0  0.04999999999975802 -0.1 0  0.09999999999961506 -0.1 0  0.1499999999994613 -0.1 0  0.199999999999302 -0.1 0  0.2499999999991446 -0.1 0  0.2999999999990088 -0.1 0  0.3499999999988296 -0.1 0  0.3999999999986936 -0.1 0  0.4499999999985143 -0.1 0  0.4999999999984002 -0.1 0  0.5499999999985247 -0.1 0  0.5999999999986493 -0.1 0  0.6499999999987955 -0.1 0  0.6999999999989417 -0.1 0  0.7499999999990659 -0.1 0  0.7999999999992116 -0.1 0  0.8499999999993573 -0.1 0  0.8999999999994526 -0.1 0  0.949999999999584 -0.1 0  0.9999999999997226 -0.1 0  1.049999999999861 -0.1 0  1.1 -0.0500000000000906 0  1.1 -1.730560139634463e-13 0  1.1 0.04999999999975802 0  1.1 0.09999999999961506 0  1.1 0.1499999999994613 0  1.1 0.199999999999302 0  1.1 0.2499999999991446 0  1.1 0.2999999999990088 0  1.1 0.3499999999988296 0  1.1 0.3999999999986936 0  1.1 0.4499999999985143 0  1.1 0.4999999999984002 0  1.1 0.5499999999985247 0  1.1 0.5999999999986493 0  1.1 0.6499999999987955 0  1.1 0.6999999999989417 0  1.1 0.7499999999990659 0  1.1 0.7999999999992116 0  1.1 0.8499999999993573 0  1.1 0.8999999999994526 0  1.1 0.949999999999584 0  1.1 0.9999999999997226 0  1.1 1.049999999999861 0  1.05000000000004 1.1 0  1.000000000000079 1.1 0  0.9500000000001624 1.1 0  0.9000000000003032 1.1 0  0.850000000000444 1.1 0  0.8000000000005848 1.1 0  0.7500000000007256 1.1 0  0.7000000000008665 1.1 0  0.6500000000010508 1.1 0  0.6000000000012352 1.1 0  0.5500000000014196 1.1 0  0.500000000001539 1.1 0  0.4500000000014195 1.1 0  0.4000000000013 1.1 0  0.3500000000011588 1.1 0  0.3000000000010178 1.1 0  0.2500000000008986 1.1 0  0.2000000000007579 1.1 0  0.1500000000006174 1.1 0  0.1000000000005272 1.1 0  0.05000000000040083 1.1 0  2.671196597248127e-13 1.1 0  -0.0499999999998666 1.1 0  0.343932177928305 0.5860528637122862 0  0.3868237728534529 0.6213625199561429 0  0.4342676453697338 0.6451188567307792 0  0.4860274680285083 0.6592401138698752 0  0.5427767361926489 0.6611121265004146 0  0.5973539094202874 0.6387334278510887 0  0.6397702879116915 0.5949905653008614 0  0.6608570096081655 0.5392077377837678 0  0.6579481949072301 0.483066081813864 0  0.6431647953374866 0.4320750066550534 0  0.6189308875596871 0.3843760415107693 0  0.5827573722521692 0.3421358822576823 0  0.5272573137691134 0.3176164652223407 0  0.471471763264051 0.3307133006849019 0  0.4263452737106359 0.3572172672771006 0  0.3877569710865067 0.390117425860646 0  0.354777938991106 0.4294450179477349 0  0.3291577305686873 0.4751072538062491 0  0.4118119964148311 0.445344400381557 0  0.4886443683585235 0.3842740251256008 0  0.4284879928506855 0.588418856377785 0  0.5812983568044382 0.427270764332558 0  0.6052243739615458 0.5224976107878018 0  0.5224880201197918 0.6090246104078025 0  0.3616861729794299 0.5301147080367934 0  0.5838081245831255 0.5840466578942878 0  0.5597649060121301 0.482367291640748 0  0.5011830735829941 0.4960566907037896 0  0.4758924352444992 0.5534641891834866 0  0.4400840539598301 0.4950197083049593 0  0.5134880448705345 0.438673955816293 0  0.5311373725767424 0.3612784600256603 0  0.4419869151122051 0.4097544381930851 0  0.4694834873153564 0.6112260551448639 0  0.3829802881866221 0.4839651621126825 0  0.4629350175768521 0.4578194269878756 0  0.4127882339510872 0.5375995939571769 0  0.6103781309604586 0.4697155935988562 0  0.5386498544067639 0.4004956612388758 0  0.3870414186657364 0.5724608895225564 0  0.6224730899492041 0.56020710137047 0  0.5616366445057851 0.6232199702265419 0  0.571816198372519 0.3813935973495909 0  0.6258524182056586 0.6236848093776484 0  0.6162285449975342 0.3641761772701796 0  0.3641131193203713 0.6169664766948854 0  0.3916874857723993 0.3709111071003127 0  0.6708929793608324 0.5105375687579856 0  0.5076051037330663 0.6710796693343604 0  0.3151134923042118 0.48821887386816 0  0.7385793337011426 0.9803473136611173 0  0.9808239173782718 0.2668799462233578 0  0.2752229778310117 0.9788612692059475 0  0.9841065438417796 0.6919102625429346 0  0.03000369928138284 0.2693502819168713 0  0.4858240417099626 0.3158382855089178 0  0.03008812442140023 0.6977763834033763 0  0.691673699167846 0.02760470009505205 0  0.5918169901968274 0.9879748520901119 0  0.3154697229936223 0.03402430875130404 0  0.425323614047406 0.9903913301662797 0  0.9874422233784715 0.4393920625487987 0  0.03277757492124631 0.4240613884877817 0  0.5372325017794942 0.02200800335012212 0  0.5247773975295102 0.3071510087497118 0  0.4912892203570798 0.2997490112106416 0  0.5271128950848801 0.2919493045218992 0  0.4945162354290388 0.2817623397529845 0  0.5295523724279524 0.2734643802376371 0  0.4956572206125842 0.2597921747004182 0  0.4607713630754351 0.2710082203974088 0  0.5311956316810263 0.2508644844375684 0  0.498119406270862 0.2371760821226191 0  0.3069673456080848 0.5290017646964827 0  0.2986401922422782 0.4963130955225593 0  0.2918363116849493 0.5322250979241085 0  0.2807132474202675 0.5000716953165056 0  0.2733889810462109 0.5353040242864883 0  0.259704476291011 0.5045523776903033 0  0.2698285682289193 0.4682991032362854 0  0.2511122906814155 0.5386338619804255 0  0.269143241736498 0.5707087400412464 0  0.2441374161269361 0.5731778875334301 0  0.2658539047328365 0.605722557597837 0  0.2359713490018397 0.6070658819107312 0  0.261219301499767 0.639683347911123 0  0.2446365712173822 0.4750753517339569 0  0.257939664730725 0.4367296264122545 0  0.5646826242047541 0.2681643570466622 0  0.5661005389257078 0.2428356535948573 0  0.6003908747707492 0.2648817378847249 0  0.6005615034161685 0.2354378369661685 0  0.6344756092955143 0.2599489106276796 0  0.2161080920821145 0.5749632299695121 0  0.2272792437679888 0.6415357222168395 0  0.2550218404397096 0.673695814045595 0  0.6346335384291387 0.2276173616706675 0  0.6673242650597013 0.2525998128368347 0  0.2286343444280782 0.4461187046349309 0  0.243453799621791 0.4061745838034743 0  0.1663618077552792 0.02793595063617126 0  0.8438652401396201 0.03013096245468578 0  0.03026894601274942 0.8459599488942329 0  0.9806740171653847 0.8456119304935905 0  0.2895973372233777 0.6726413262103635 0  0.2832260280694681 0.7050238341139318 0  0.2487584105592982 0.7070230740802654 0  0.3193813494584111 0.7056352054255058 0  0.311991069098389 0.7354145616648985 0  0.3497095244221191 0.7345533536644515 0  0.3409322151995005 0.7645718510824785 0  0.3806535404726364 0.7626116726051727 0  0.6678611024813145 0.286753578894532 0  0.6994754316400714 0.2790093019102889 0  0.6999782741599795 0.3147154551510229 0  0.7303484318336148 0.3064129911941197 0  0.7304701657276997 0.3441610124714742 0  0.7312897980582556 0.2698904405720921 0  0.7601073225248836 0.3339985970956381 0  0.7593280976835729 0.3745014543943039 0  0.7892497125315119 0.3620790926722107 0  0.7872219789245334 0.4046626659123263 0  0.3701917204529204 0.7929381434147504 0  0.4113175901742596 0.7898459941959458 0  0.3294101913793462 0.7942184971061635 0  0.211197665208422 0.416143889254012 0  0.2262206264678941 0.3766127559739752 0  0.2606688827424524 0.3660815110268162 0  0.2438536561846633 0.3367497136321539 0  0.6006394224722995 0.204761315064788 0  0.2070580821112102 0.3466827796636645 0  0.2244655
[...]
<PointData  Scalars="v"> 
<DataArray  type="Float64"  Name="v"  format="ascii">0.0000000000000000e+00  0.0000000000000000e+00  0.0000000000000000e+00  0.0000000000000000e+00  0.0000000000000000e+00  0.0000000000000000e+00  0.0000000000000000e+00  0.0000000000000000e+00  4.6884074381079782e-03  4.4848276427777401e-03  0.0000000000000000e+00  0.0000000000000000e+00  0.0000000000000000e+00  0.0000000000000000e+00  0.0000000000000000e+00  0.0000000000000000e+00  0.0000000000000000e+00  0.0000000000000000e+00  0.0000000000000000e+00  0.0000000000000000e+00  0.0000000000000000e+00  0.0000000000000000e+00  0.0000000000000000e+00  0.0000000000000000e+00  0.0000000000000000e+00  0.0000000000000000e+00  0.0000000000000000e+00  0.0000000000000000e+00  0.0000000000000000e+00  0.0000000000000000e+00  0.0000000000000000e+00  0.0000000000000000e+00  0.0000000000000000e+00  0.0000000000000000e+00  0.0000000000000000e+00  0.0000000000000000e+00  0.0000000000000000e+00  0.0000000000000000e+00  0.0000000000000000e+00  0.0000000000000000e+00  0.0000000000000000e+00  0.0000000000000000e+00  0.0000000000000000e+00  0.0000000000000000e+00  0.0000000000000000e+00  0.0000000000000000e+00  0.0000000000000000e+00  0.0000000000000000e+00  0.0000000000000000e+00  0.0000000000000000e+00  0.0000000000000000e+00  0.0000000000000000e+00  0.0000000000000000e+00  0.0000000000000000e+00  0.0000000000000000e+00  0.0000000000000000e+00  0.0000000000000000e+00  0.0000000000000000e+00  0.0000000000000000e+00  0.0000000000000000e+00  0.0000000000000000e+00  0.0000000000000000e+00  0.0000000000000000e+00  0.0000000000000000e+00  0.0000000000000000e+00  0.0000000000000000e+00  0.0000000000000000e+00  0.0000000000000000e+00  0.0000000000000000e+00  0.0000000000000000e+00  0.0000000000000000e+00  0.0000000000000000e+00  0.0000000000000000e+00  0.0000000000000000e+00  0.0000000000000000e+00  0.0000000000000000e+00  0.0000000000000000e+00  0.0000000000000000e+00  0.0000000000000000e+00  0.0000000000000000e+00  0.0000000000000000e+00  0.0000000000000000e+00  0.0000000000000000e+00  0.0000000000000000e+00  0.0000000000000000e+00  0.0000000000000000e+00  0.0000000000000000e+00  0.0000000000000000e+00  0.0000000000000000e+00  0.0000000000000000e+00  0.0000000000000000e+00  0.0000000000000000e+00  0.0000000000000000e+00  0.0000000000000000e+00  0.0000000000000000e+00  0.0000000000000000e+00  0.0000000000000000e+00  0.0000000000000000e+00  0.0000000000000000e+00  0.0000000000000000e+00  0.0000000000000000e+00  0.0000000000000000e+00  0.0000000000000000e+00  0.0000000000000000e+00  0.0000000000000000e+00  0.0000000000000000e+00  0.0000000000000000e+00  0.0000000000000000e+00  0.0000000000000000e+00  0.0000000000000000e+00  0.0000000000000000e+00  0.0000000000000000e+00  0.0000000000000000e+00  0.0000000000000000e+00  0.0000000000000000e+00  0.0000000000000000e+00  0.0000000000000000e+00  0.0000000000000000e+00  0.0000000000000000e+00  0.0000000000000000e+00  0.0000000000000000e+00  0.0000000000000000e+00  0.0000000000000000e+00  0.0000000000000000e+00  0.0000000000000000e+00  0.0000000000000000e+00  0.0000000000000000e+00  0.0000000000000000e+00  0.0000000000000000e+00  0.0000000000000000e+00  0.0000000000000000e+00  0.0000000000000000e+00  0.0000000000000000e+00  0.0000000000000000e+00  0.0000000000000000e+00  0.0000000000000000e+00  0.0000000000000000e+00  0.0000000000000000e+00  0.0000000000000000e+00  0.0000000000000000e+00  0.0000000000000000e+00  0.0000000000000000e+00  0.0000000000000000e+00  0.0000000000000000e+00  0.0000000000000000e+00  0.0000000000000000e+00  0.0000000000000000e+00  0.0000000000000000e+00  0.0000000000000000e+00  0.0000000000000000e+00  0.0000000000000000e+00  0.0000000000000000e+00  0.0000000000000000e+00  0.0000000000000000e+00  0.0000000000000000e+00  0.0000000000000000e+00  0.0000000000000000e+00  0.0000000000000000e+00  0.0000000000000000e+00  0.0000000000000000e+00  0.0000000000000000e+00  0.0000000000000000e+00  0.0000000000000000e+00  0.0000000000000000e+00  0.0000000000000000e+00  0.0000000000000000e+00  0.0000000000000000e+00  0.0000000000000000e+00  0.0000000000000000e+00  0.0000000000000000e+00  0.0000000000000000e+00  0.0000000000000000e+00  0.0000000000000000e+00  0.0000000000000000e+00  0.0000000000000000e+00  0.0000000000000000e+00  0.0000000000000000e+00  0.0000000000000000e+00  4.6474733730774223e-03  4.7395941835654916e-03  4.7648928517194065e-03  4.7567821709614110e-03  4.7781170405440335e-03  4.7625157163329289e-03  4.7774794694321046e-03  4.7916566898892387e-03  4.7601575894953571e-03  4.7621046532231766e-03  4.7331898087722268e-03  4.6735581735636994e-03  4.6989677501473618e-03  4.6603956486763127e-03  4.6998069538581331e-03  4.7301604798269409e-03  4.6904330689553240e-03  4.6538194393145787e-03  4.1603318020595201e-03  4.0977608157815384e-03  4.1245460003251190e-03  4.1446133580537578e-03  4.1557968739177088e-03  4.1530450204492232e-03  3.9458042946938898e-03  4.1216767460201973e-03  4.4471830759197804e-03  4.4836063627103490e-03  4.4606424247276254e-03  4.4488876263167375e-03  4.4669679885222030e-03  3.9467113759211843e-03  4.1756555284379517e-03  4.1647630957021668e-03  4.1045860093260125e-03  4.4450034355651251e-03  4.3259091928234301e-03  4.1834771232437517e-03  4.2440840620867927e-03  4.0775206717796010e-03  4.1794909627332084e-03  4.1732113832406862e-03  4.0956740407626984e-03  5.1375312288450357e-03  5.1164286527177090e-03  5.0981027875508416e-03  5.1985816233895768e-03  5.1692798474983802e-03  5.1617397296457885e-03  5.0115514309343268e-03  4.2092698974515222e-04  4.1862558514514685e-04  4.6366861558111254e-04  3.9622093347385146e-04  5.9802588469870369e-04  5.0275480989450229e-03  6.5930431044842965e-04  6.1787733920606284e-04  3.7109993473539711e-04  7.4193291931885037e-04  2.9960313754153118e-04  3.8931163557814278e-04  8.3785378977253660e-04  6.1927007629133208e-04  5.0243881148290120e-03  5.2146528992348317e-03  5.1629012373029430e-03  5.1657604238791541e-03  5.0552846301477458e-03  4.9100938180342106e-03  5.0339796827190220e-03  4.7511816084139357e-03  4.5554402122902635e-03  5.0122321097945278e-03  5.1975026445347499e-03  5.1501096798634398e-03  5.1469436904052045e-03  5.0394602246206467e-03  4.9027638240476488e-03  5.0271044430062915e-03  4.7368834093092652e-03  4.9124350218945770e-03  4.5311780111912028e-03  4.7049491468796828e-03  4.2585548388750262e-03  4.4219268366824886e-03  4.6550544680332541e-03  4.7680171114054754e-03  4.9271364239964043e-03  4.5423202427786807e-03  4.7266791457231767e-03  4.2876561906532605e-03  4.4455745861888005e-03  4.0846872340014207e-03  3.9455563835986565e-03  4.0912423366396711e-03  3.9961168785517757e-03  4.1155165801363804e-03  4.3399924328592623e-03  4.4254496796990424e-03  3.8263712918901855e-04  3.8765287736198075e-04  3.8633576278822047e-04  2.6920653407478149e-04  4.5120294648259996e-03  4.1404436049270101e-03  3.7314756914858700e-03  4.4980935621592687e-03  4.0951981316150882e-03  4.4128431313463917e-03  3.9573698375365753e-03  4.2359766632581652e-03  4.5276079884689893e-03  4.1540522879687583e-03  4.5187404833543316e-03  4.1083324552653715e-03  4.4270233506987422e-03  3.7341710333338059e-03  3.9712087673442293e-03  4.2517830994829500e-03  3.7455766381812618e-03  3.9868853623901031e-03  3.7315649549428897e-03  3.9691314439620345e-03  3.4650887100116132e-03  3.9776343788516157e-03  4.0309443739066477e-03  4.4449003096428815e-03  4.0229943765824816e-03  3.8199647688506254e-03  3.5781293816883951e-03  3.5420058670342812e-03  3.9343456827690458e-03  3.4188984473669981e-03  3.7458410388984138e-03  3.2011189021699830e-03  3.4585002968896979e-03  3.4979258905810974e-03  2.8789189688016789e-03  6.3388094591797619e-04  3.4401589937038033e-03  3.6405594315078575e-03  4.1720721687257311e-03  3.7949301319933717e-03  4.2985580730452800e-03  3.9010459784708613e-03  4.3674940702841305e-03  3.9508267246340430e-03  4.3765531164422031e-03  3.9448256533295561e-03  4.3300922101488538e-03  3.8718462936799792e-03  4.2199409678891596e-03  3.7312775299425337e-03  4.0221137435203233e-03  3.5127953941238885e-03  3.7433333334221373e-03  3.4937405156090146e-03  3.2208491274415912e-03  3.3826400511685964e-03  3.8875055041427201e-03  3.4545853107044965e-03  3.1983338812905508e-03  2.9828439718790904e-03  2.6854140897666703e-03  3.9426780627068031e-03  3.4540522561068410e-03  2.4339278112903489e-03  3.4220380125680209e-03  2.9516508323232972e-03  2.1449871042031623e-03  4.4616494811422474e-03  4.3560680852169232e-03  6.5721096550879073e-04  4.1247919505371297e-04  3.1761627380157365e-04  2.6439216937139557e-03  3.7825313387070266e-04  4.4739468176721836e-04  3.2359493718869072e-03  4.7012358356280674e-03  2.8915488038223163e-03  3.0843098227617436e-03  3.0656061303035278e-03  2.8083992130224257e-04  3.2806412505873277e-03  4.3819163511641182e-03  3.3720984058205621e-03  2.3273408286084785e-03  3.8834109702548776e-03  4.2593682992367442e-03  2.9422435060919992e-03  4.6470453839542927e-03  2.8560138920005339e-03  2.6194386111624743e-03  5.1696441324007468e-03  3.6249073032790929e-03  3.0062165234453308e-03  2.8334859143211246e-03  4.7457711430228108e-03  4.7823965960159549e-03  4.7726936724384363e-03  4.7603019439629718e-03  1.8927738674281512e-03  2.0994066455009394e-03  2.3860227033114787e-03  1.6288624593471847e-03  2.0831729978127863e-03  2.3177279161634341e-03  1.8035058442733148e-03  2.5931876833043569e-03  1.7906832773403420e-03  4.8994393220423522e-03  2.6686874903152726e-03  2.9932369569999622e-03  2.2747932671111806e-03  2.2433278739013313e-03  4.2940774878184604e-03  1.5581619762272457e-03  5.1165840982064191e-03  5.1099064014281598e-03  2.0226510649637925e-03  2.3710115295556369e-03  1.9604598746215778e-03  2.4886971068744401e-03  3.2181517821029590e-03  2.5496876453110118e-03  5.0536480410863288e-03  3.1460138714211406e-03  2.5795308586893397e-03  2.7591549124117358e-03  2.2021201399241874e-03  2.3370976792007865e-03  1.8314570646081592e-03  1.8986176847401411e-03  1.7461771108201517e-03  1.8194694984601260e-03  5.3200308737292633e-03  5.0947856512832635e-03  1.6164238335147757e-03  1.7045098564290077e-03  2.3775442125544281e-03  1.8866427176650671e-03  1.4559198453079813e-03  1.4060952537394006e-03  5.1936727463775543e-03  1.8034576027141343e-03  1.9372620200969338e-03  1.3186902612941911e-03  1.1520118537505463e-03  5.1807833487407320e-03  2.4379299708510728e-03  1.8716135437799404e-03  1.0282248390311550e-03  5.1735386044845996e-03  5.3679251875964461e-03  5.3720980261281913e-03  1.9004113545607738e-03  2.3289876842084406e-03  2.6380083747988446e-03  2.0095964137310457e-03  3.2951242462576852e-03  2.9277108415205794e-03  2.2398299128369645e-03  2.5201551332204495e-03  3.1793058993150516e-03  2.7542193927813843e-03  3.3741172865558223e-03  4.6309121696669567e-03  2.9448909977658417e-03  2.3322391666225021e-03  5.3855240847003423e-03  5.3382520995741431e-03  5.3878403224996872e-03  5.4214302521570640e-03  1.4109725192517760e-03  1.2784860559883484e-03  1.1633523341894459e-04  1.9670231100193499e-04  2.1679765908965239e-04  1.7221459155577611e-04  1.3500795662594867e-03  1.2155368576411952e-03  1.3456299612508958e-03  3.3852344527342971e-03  5.3747122385495198e-03  5.4281962109771296e-03  5.4436612098619774e-03  5.3292800877522686e-03  5.4406943334350862e-03  5.4232360330322953e-03  3.7795881681921008e-03  3.9237644402047465e-03  2.2423566606947004e-03  1.7510040228827536e-03  2.3160767868144754e-03  1.7186632411457913e-03  2.3461818848200546e-03  1.7267330418657243e-03  2.3010804899045237e-03  1.4966875296449991e-03  1.0996482936462477e-03  2.7310222035545248e-03  2.0800298832447175e-03  1.9095786953586494e-03  1.0756269081306780e-03  2.9820268530599187e-03  2.3411678095833005e-03  2.9213142333038861e-03  2.1592127670304381e-03  2.6257267582866046e-03  1.9563256993084038e-03  2.3794890899754844e-03  3.0357144085736377e-03  2.7712176306236526e-03  2.0885004872503677e-03  2.4787356998876827e-03  1.8091188372759842e-03  2.1910509431656332e-03  2.8067102630322748e-03  2.4545278894678806e-03  1.7768265411227866e-03  2.0895936892465269e-03  1.5106412560148257e-03  1.7162905424440336e-03  2.2520733679773034e-03  1.8196754839283672e-03  2.2933697588096583e-03  1.8099333731228420e-03  1.4203345199219897e-03  2.2215671919365481e-03  1.6879939635675268e-03  2.0374998701270645e-03  2.7499987638109390e-03  1.1794416841503629e-03  1.4605496320236064e-03  1.7519839973490312e-03  1.1705556826332171e-03  3.8201896655847964e-03  5.3419198252015561e-03  5.4048781013426739e-03  1.6720448764705501e-03  2.2269921434399935e-03  1.5722447739279189e-03  5.1026308304559630e-03  5.3001119867383487e-03  5.1718009899039156e-03  1.9629074930960465e-03  1.4260911467989770e-03  1.5444403503390477e-03  4.2926121542322428e-03  4.3821371213009306e-03  1.2204487597628458e-03  2.8749948736428244e-03  5.4252330592721634e-03  9.5489596564539653e-04  6.6772165984099459e-04  1.2454077384089922e-03  2.3595225682879997e-03  5.3613568004612410e-03  5.3911160305645427e-03  3.0453438180846931e-03  9.0548195719379328e-04  7.4118553508140778e-04  5.2355387336681857e-03  5.2289263513315073e-03  2.0457142410475267e-03  1.3890021752829165e-03  9.7043871491162611e-04  8.2959813273900790e-04  7.4157696602831483e-04  2.1268943373587107e-03  2.6161850769992829e-03  1.8239572010884969e-03  2.2925453828488507e-03  2.8058238353678507e-03  1.0496933893924228e-03  9.3732892379523559e-04  1.9257469893816752e-03  1.3832069390889270e-03  1.2708714677159890e-03  2.4313332320881152e-03  8.1753470420873600e-04  1.1676250220169471e-03  1.0329924553082557e-03  4.0104814874504591e-03  1.6724977886228677e-03  1.2929516378002092e-03  3.2712097657866097e-03  5.2139844751234255e-03  1.5373837712688817e-03  9.0301446726932832e-04  1.4936378622293234e-03  1.6482558250481229e-03  5.2592453475571645e-03  5.2845388189726918e-03  5.0829130037638934e-03  9.1004269497150592e-04  2.4773184749120125e-03  1.7143011485075939e-03  1.0535519466267206e-03  5.1815006222763679e-03  5.3851653244779540e-03  5.4429769102435676e-03  5.4346262649951167e-03  5.4464847423505514e-03  5.3098773362688732e-03  5.4515033083979980e-03  5.4021561050009350e-03  5.2586455384277982e-03  5.4559600462269946e-03  5.3340575473710709e-03  2.9630775549158092e-03  3.4953690702863916e-03  3.6147212819770051e-03  5.6390619122747329e-04  4.5332223583993280e-04  7.8123744698917880e-04  5.2792103490611640e-03  5.1236538392969368e-04  3.9870687613272678e-04  1.3946092657188592e-03  5.1267836984329141e-03  5.3868450030559135e-03  5.3589847747580015e-03  5.4506424051812673e-03  5.3573182126967073e-03  5.3295023345397239e-03  5.4275596853109098e-03  5.2137158571930152e-03  5.3139451259867571e-03  4.9974822979706292e-03  5.1322123572949893e-03  5.4416269439393249e-03  4.8834146687804407e-03  5.0998857182320018e-03  4.3633952938390858e-03  5.2371567593626038e-03  5.3169561008579213e-03  5.2440854598634588e-03  9.3690696056713640e-04  6.5786512945393584e-04  8.0344849783765392e-04  6.2503590213188864e-04  5.1273354197905142e-03  5.3514142482194446e-03  3.4000319524908752e-03  1.3051908422733896e-03  4.7156475520871276e-03  4.2376206633802206e-03  3.1300889052311861e-03  4.4694583356036741e-03  4.4879917590189035e-03  4.7405702989447183e-03  4.8395706734115683e-03  5.2390020143783869e-03  5.2099877501381323e-03  3.5738750378032252e-03  3.8925849350017853e-03  3.5874213154759456e-03  6.6733501035197602e-04  1.1362185898832809e-03  3.2608361140436838e-03  7.4535504676176564e-04  9.9670841617156467e-04  4.7739126866637935e-03  4.6524970955017170e-03  4.9323111319637628e-03  4.6373867628272019e-03  4.1503131482167332e-03  7.3265413403405351e-04  6.1969109992873490e-04  1.1897604321303703e-03  6.8572529592493461e-04  1.3553234137190276e-03  5.3030302509076525e-03  2.6013036518283271e-03  2.7648708330548486e-03  3.2779254818162190e-03  3.1392795785098139e-03  4.1665140361755127e-03  4.3355206739484195e-03  4.7971641836825696e-03  5.0199444710758801e-04  4.8632178088743689e-03  5.1945431680961080e-04  9.2452789328946450e-04  5.1116259427367184e-03  2.6596046650652770e-03  3.3667848807348574e-04  8.0071324285052332e-04  4.3700496293906325e-03  3.9705260804550523e-04  3.9044527105664182e-04  4.8172501963124267e-03  8.9745719945388922e-04  2.8287285877328025e-03  7.1853625841263719e-04  6.6044108265708246e-04  1.3590063997196704e-03  6.8578734932300020e-04  6.5528216334138402e-04  1.2251838688041269e-03  1.2696544680409825e-03  1.6931987941571601e-03  5.0585189465569167e-03  6.3932284044761851e-04  1.2336839769028188e-03  1.0932334927991774e-03  5.6447950511341572e-04  9.8965858755685216e-04  4.9345957526369260e-04  4.0096105037722412e-03  3.4193177653671527e-03  2.9273150612388598e-04  4.3592344245145596e-04  7.5668253989822807e-04  4.8887585293511072e-04  8.4770233823013995e-04  2.4887853153110918e-04  1.0126183131867438e-03  4.4048300779146699e-04  1.1025814315444226e-03  4.4875764825990034e-04  1.2850692985554499e-03  2.0658282724598051e-04  5.3831093969293111e-03  9.8570390304768903e-04  5.1921692565166490e-03  2.6538248271024524e-03  5.2575629167808157e-03  2.3753241844869967e-04  5.1554917471535872e-03  3.4068025696758274e-04  5.1520235890714803e-03  2.7512853637485417e-04  6.4426099764755866e-04  5.3234747481609264e-03  2.1759172945720029e-04  4.9076274797691779e-03  6.0258270600455186e-04  2.9275820816284282e-03  5.3883998709509462e-04  1.7641281010066505e-03  1.0705531957523264e-03  2.8009483700595843e-03  2.2006606656679831e-03  1.6577575027974028e-03  3.4839262257923154e-03  2.9051908093933290e-03  5.2308654690268064e-03  3.7299462223867172e-03  3.2034598495158596e-03  4.9338914306037880e-03  4.3365115877311245e-03  5.0655646513317835e-03  3.8998691517969477e-03  1.4501266964720547e-03  3.6273729198540959e-03  2.4100000001209031e-03  5.2354075117443024e-04  4.0988594430744546e-03  2.4527467908431800e-03  4.8650631675912085e-03  3.5547549692758616e-03  1.3905311744802507e-03  4.7991536468615977e-03  4.7881388843332732e-03  1.9681302899078666e-03  2.8021824893264143e-03  3.3625321788003184e-03  1.1236926678402192e-03  3.0297211950425207e-03  3.4590397801813532e-03  2.8905716274039311e-03  3.1545852582583337e-03  2.7828180858785892e-03  6.5310052305290437e-04  1.3336987026504315e-03  1.3442169346114209e-03  1.5385501799111885e-03  1.7692961319859296e-03  8.6891410084309812e-04  2.9461594371196402e-03  5.0827918078971430e-03  3.0669749503234177e-03  4.2237812761082650e-03  3.9648465963455104e-04  3.2263021881085321e-03  2.0959600268948809e-03  3.4340784806163481e-03  4.3184539664081556e-03  1.8464153696497617e-03  1.8740667712201391e-04  3.8010463929604630e-03  2.3210279320169803e-03  3.5465140973283587e-03  1.9594186799502017e-03  1.5923143828556682e-04  5.4410181390717773e-03  3.2021128694721757e-03  1.4385884044456508e-03  3.6683541074425357e-03  1.9548128316346003e-04  3.9404826477711166e-03  3.0925320902326701e-03  3.4850082395089157e-03  5.3879917768485499e-03  3.3500348014011994e-04  9.2799296344357144e-04  1.1049821451882057e-03  3.0644811926949534e-04  5.3418006947911455e-03  2.8550142172126766e-03  4.6376856189189698e-03  3.7517504916557095e-03  5.7052269227577410e-04  2.6364428122577590e-03  2.9284819389065750e-03  5.1375138083862484e-03  3.6681013591045638e-03  1.0501854709443657e-03  1.0447982108817897e-03  5.2597855143149234e-03  3.8842707758629817e-04  5.2314083108499073e-03  2.9781161568853887e-04  3.6558042786981383e-03  5.2709015513107329e-03  6.5470533848437627e-04  1.0157697111318744e-03  2.5044868709338760e-03  5.3908394222355821e-03  7.3659902445091796e-04  2.6287449198827855e-03  1.3152348065484860e-03  3.9028563561267223e-04  1.4601332803668666e-03  1.1446502244363500e-03  3.2864230626602044e-03  3.0237087841688274e-04  5.1458463427929346e-03  4.7281568567781153e-03  1.7410926123318526e-03  5.3846085389429180e-03  2.9414670289340820e-04  2.1011815064270168e-03  1.6325218856369714e-03  6.4124036607446908e-04  4.8719905455968243e-03  1.2045924779323339e-03  2.3312494304449601e-03  5