<?xml version="1.0"?>
<VTKFile type="UnstructuredGrid"  version="0.1"  >
<UnstructuredGrid>
<Piece  NumberOfPoints="1008" NumberOfCells="1918">
<Points>
<DataArray  type="Float64"  NumberOfComponents="3"  format="ascii">0 0 0  0 1 0  1 1 0  1 0 0  1.1 -0.1 0  -0.1 -0.1 0  1.1 1.1 0  -0.1 1.1 0  0.2893792023056899 0.5370809612394936 0  0.548504160132123 0.5486072032726923 0  0 0.9499999999997918 0  0 0.8999999999995836 0  0 0.8499999999996529 0  0 0.7999999999999998 0  0 0.7500000000003466 0  0 0.7000000000006934 0  0 0.6500000000010401 0  0 0.6000000000013869 0  0 0.5500000000017335 0  0 0.5000000000020587 0  0 0.4500000000018723 0  0 0.4000000000016644 0  0 0.3500000000014564 0  0 0.3000000000012483 0  0 0.2500000000010403 0  0 0.2000000000008322 0  0 0.1500000000006241 0  0 0.100000000000416 0  0 0.05000000000020799 0  0.04999999999989965 0 0  0.09999999999981467 0 0  0.1499999999997036 0 0  0.1999999999995579 0 0  0.2499999999994121 0 0  0.2999999999992664 0 0  0.3499999999991206 0 0  0.3999999999989749 0 0  0.4499999999988292 0 0  0.4999999999986943 0 0  0.5499999999988151 0 0  0.5999999999989468 0 0  0.6499999999990784 0 0  0.69999999999921 0 0  0.7499999999993417 0 0  0.7999999999994734 0 0  0.8499999999996051 0 0  0.8999999999997368 0 0  0.9499999999998684 0 0  1 0.04999999999989965 0  1 0.09999999999981467 0  1 0.1499999999997036 0  1 0.1999999999995579 0  1 0.2499999999994121 0  1 0.2999999999992664 0  1 0.3499999999991206 0  1 0.3999999999989749 0  1 0.4499999999988292 0  1 0.4999999999986943 0  1 0.5499999999988151 0  1 0.5999999999989468 0  1 0.6499999999990784 0  1 0.69999999999921 0  1 0.7499999999993417 0  1 0.7999999999994734 0  1 0.8499999999996051 0  1 0.8999999999997368 0  1 0.9499999999998684 0  0.9499999999997918 1 0  0.8999999999995836 1 0  0.8499999999996529 1 0  0.7999999999999998 1 0  0.7500000000003466 1 0  0.7000000000006934 1 0  0.6500000000010401 1 0  0.6000000000013869 1 0  0.5500000000017335 1 0  0.5000000000020587 1 0  0.4500000000018723 1 0  0.4000000000016644 1 0  0.3500000000014564 1 0  0.3000000000012483 1 0  0.2500000000010403 1 0  0.2000000000008322 1 0  0.1500000000006241 1 0  0.100000000000416 1 0  0.05000000000020799 1 0  -0.1 1.05000000000004 0  -0.1 1.000000000000079 0  -0.1 0.9500000000001624 0  -0.1 0.9000000000003032 0  -0.1 0.850000000000444 0  -0.1 0.8000000000005848 0  -0.1 0.7500000000007256 0  -0.1 0.7000000000008665 0  -0.1 0.6500000000010508 0  -0.1 0.6000000000012352 0  -0.1 0.5500000000014196 0  -0.1 0.500000000001539 0  -0.1 0.4500000000014195 0  -0.1 0.4000000000013 0  -0.1 0.3500000000011588 0  -0.1 0.3000000000010178 0  -0.1 0.2500000000008986 0  -0.1 0.2000000000007579 0  -0.1 0.1500000000006174 0  -0.1 0.1000000000005272 0  -0.1 0.05000000000040083 0  -0.1 2.671196597248127e-13 0  -0.1 -0.0499999999998666 0  -0.0500000000000906 -0.1 0  -1.730560139634463e-13 -0.1 0  0.04999999999975802 -0.1 0  0.09999999999961506 -0.1 0  0.1499999999994613 -0.1 0  0.199999999999302 -0.1 0  0.2499999999991446 -0.1 0  0.2999999999990088 -0.1 0  0.3499999999988296 -0.1 0  0.3999999999986936 -0.1 0  0.4499999999985143 -0.1 0  0.4999999999984002 -0.1 0  0.5499999999985247 -0.1 0  0.5999999999986493 -0.1 0  0.6499999999987955 -0.1 0  0.6999999999989417 -0.1 0  0.7499999999990659 -0.1 0  0.7999999999992116 -0.1 0  0.8499999999993573 -0.1 0  0.8999999999994526 -0.1 0  0.949999999999584 -0.1 0  0.9999999999997226 -0.1 0  1.049999999999861 -0.1 0  1.1 -0.0500000000000906 0  1.1 -1.730560139634463e-13 0  1.1 0.04999999999975802 0  1.1 0.09999999999961506 0  1.1 0.1499999999994613 0  1.1 0.199999999999302 0  1.1 0.2499999999991446 0  1.1 0.2999999999990088 0  1.1 0.3499999999988296 0  1.1 0.3999999999986936 0  1.1 0.4499999999985143 0  1.1 0.4999999999984002 0  1.1 0.5499999999985247 0  1.1 0.5999999999986493 0  1.1 0.6499999999987955 0  1.1 0.6999999999989417 0  1.1 0.7499999999990659 0  1.1 0.7999999999992116 0  1.1 0.8499999999993573 0  1.1 0.8999999999994526 0  1.1 0.949999999999584 0  1.1 0.9999999999997226 0  1.1 1.049999999999861 0  1.05000000000004 1.1 0  1.000000000000079 1.1 0  0.9500000000001624 1.1 0  0.9000000000003032 1.1 0  0.850000000000444 1.1 0  0.8000000000005848 1.1 0  0.7500000000007256 1.1 0  0.7000000000008665 1.1 0  0.6500000000010508 1.1 0  0.6000000000012352 1.1 0  0.5500000000014196 1.1 0  0.500000000001539 1.1 0  0.4500000000014195 1.1 0  0.4000000000013 1.1 0  0.3500000000011588 1.1 0  0.3000000000010178 1.1 0  0.2500000000008986 1.1 0  0.2000000000007579 1.1 0  0.1500000000006174 1.1 0  0.1000000000005272 1.1 0  0.05000000000040083 1.1 0  2.671196597248127e-13 1.1 0  -0.0499999999998666 1.1 0  0.3197197015715473 0.6022861657262836 0  0.3696400717680745 0.6442334379822257 0  0.424533023251752 0.6727404870749311 0  0.4850882313768388 0.6889821119094395 0  0.551573874581457 0.6910318368118747 0  0.6159539943564194 0.6640029950220392 0  0.6657682855079672 0.612167195112757 0  0.6909240121917393 0.5467127614020331 0  0.6883248610390036 0.4810575487074069 0  0.6710523319742159 0.4214501601781747 0  0.6420694556900857 0.36619702652662 0  0.5990280013241963 0.3170196299868567 0  0.5327850059190332 0.2886933705748742 0  0.4671222329322816 0.3031868761261249 0  0.4139667602316777 0.3327265618960253 0  0.3685093234795463 0.3706273224544518 0  0.3305085660077325 0.416940693405258 0  0.302117878157017 0.4708202632514377 0  0.3978391899005659 0.4361767511659835 0  0.4877850562965255 0.3657146748140654 0  0.4182651820003061 0.6053872265980055 0  0.5976209976071321 0.4162449472180048 0  0.6256178190498507 0.5274180054309352 0  0.5281064536956998 0.629622179233983 0  0.340524408189654 0.5360436418005365 0  0.6001205589858455 0.5998440112407821 0  0.5722046076320929 0.4806002963269291 0  0.503236206488625 0.496612686955494 0  0.473686109371849 0.5641605271030907 0  0.4316097816484567 0.4950471656668505 0  0.5174904402055136 0.4294531717661847 0  0.5379028521726448 0.3393572536331113 0  0.4328505577075072 0.3947347863326399 0  0.4659908619232413 0.6323961978012812 0  0.3648262165609926 0.4815722725395964 0  0.4580584676963215 0.451409839836917 0  0.399974769810985 0.5452161271485461 0  0.6320705734856185 0.4656445302253396 0  0.547036862988137 0.3849988506225327 0  0.3699637295549318 0.5863508889962807 0  0.6456641348061216 0.5715398804837267 0  0.5739720857046304 0.6461442278599875 0  0.5862318032254972 0.3627612384643769 0  0.6483676991988422 0.645033295573554 0  0.6375544075975638 0.3439193857768373 0  0.3444535790501234 0.6376876704734071 0  0.3744528365136334 0.3498128793499191 0  0.7015651354363437 0.5131767392324625 0  0.5102514475687673 0.7011526287835689 0  0.2875556295722935 0.4863345029553615 0  0.7455218682735316 0.9885349830450527 0  0.9885057890974891 0.2609170858835139 0  0.2688717859491124 0.9870469482379373 0  0.9921601393853303 0.6971958321503253 0  0.02173529999107419 0.2628641619885876 0  0.4841276995681985 0.2876970046581237 0  0.02042653586776352 0.704577798403895 0  0.6982936425191217 0.018473602402499 0  0.5952926549196561 0.9980960722934726 0  0.30932950654789 0.02439604121350912 0  0.4237948617392708 0.9963184146158035 0  0.9966449205860036 0.4370522186848703 0  0.02244687046589278 0.4210145808762055 0  0.5387702209677098 0.01278881328786313 0  0.5297946967789442 0.2780991001398899 0  0.4907610250151987 0.2715386521680505 0  0.5322448096416503 0.2631906645335594 0  0.4947125820163994 0.253833635782433 0  0.5347120814115486 0.2453536115870465 0  0.4962046603416432 0.2325109296218942 0  0.4569492850212141 0.2445942143987737 0  0.5361689369575789 0.2236596510773788 0  0.499067562568368 0.2106713710325404 0  0.2786557842055182 0.5341168646920911 0  0.2709765698685873 0.4959762981297899 0  0.2638185045601542 0.5375379559413456 0  0.2533449947100277 0.5004785879587759 0  0.2459941490609029 0.5406593341069402 0  0.2329117978049496 0.5056652686263414 0  0.2437543330526017 0.4648430699927967 0  0.2246078901626768 0.5439437842452706 0  0.2434896459968697 0.5802770380082966 0  0.2191399627994439 0.5820683468102205 0  0.2420498630157928 0.6186139542571626 0  0.2126757290548587 0.618647671877489 0  0.2395753965525152 0.6547737922618101 0  0.2190572908400692 0.4728806383242361 0  0.2334950712322004 0.4302499692463866 0  0.5741164339991024 0.2416516629172764 0  0.5747868509014982 0.2169963037890185 0  0.6133202969738109 0.2402321710060565 0  0.6121284785069825 0.2112851002213701 0  0.6496660876324259 0.2374856582436562 0  0.1919895883684408 0.5831253292082132 0  0.2059038251147383 0.6550731633659903 0  0.2354245837524698 0.6901296947149727 0  0.6482654455791599 0.2053807483223822 0  0.6838377709045915 0.2321118134948927 0  0.2045554256751064 0.4413375664034294 0  0.2207418974828183 0.3975186982549557 0  0.1593750394257457 0.0203728757508929 0  0.8525324595559178 0.02135643955622958 0  0.02172032909303507 0.8541049108501932 0  0.9884672669689435 0.8529715914745115 0  0.270500367595443 0.6909367861727106 0  0.2658618485248089 0.7239182041246336 0  0.230867757992207 0.7242399944822644 0  0.3033131105367158 0.7266225178069613 0  0.2971516213467308 0.7563213670566439 0  0.3367731946440965 0.7575201674142316 0  0.3287623097995004 0.7869460133916076 0  0.3709515578841386 0.7869072425682262 0  0.6862899019887417 0.2667473687687629 0  0.7184778465628625 0.2607261546633677 0  0.721028678640087 0.2976073653264374 0  0.7513188057649008 0.2906049535307567 0  0.753478324334959 0.3301954284672133 0  0.7504348676413962 0.253009278003536 0  0.7825037530305482 0.3207904258814262 0  0.7836931982255181 0.3637254373623346 0  0.8125772713659193 0.3514944304189543 0  0.812365289654863 0.3969731713629099 0  0.3607134128513171 0.8162715968705501 0  0.4047245015236165 0.8148924944344057 0  0.3176739520655178 0.8157396845759295 0  0.1887993852862857 0.4092654365952735 0  0.2052293400933956 0.3664970547723488 0  0.2398464012516669 0.3538697376171231 0  0.2246329596344192 0.3237340851619272 0  0.6110740616164565 0.181364341059017 0  0.1877353655578676 0.3355731082798151 0  0.206709529
[...]
<PointData  Scalars="v"> 
<DataArray  type="Float64"  Name="v"  format="ascii">0.0000000000000000e+00  0.0000000000000000e+00  0.0000000000000000e+00  0.0000000000000000e+00  0.0000000000000000e+00  0.0000000000000000e+00  0.0000000000000000e+00  0.0000000000000000e+00  2.9226332285885301e-03  2.9491117322470455e-03  0.0000000000000000e+00  0.0000000000000000e+00  0.0000000000000000e+00  0.0000000000000000e+00  0.0000000000000000e+00  0.0000000000000000e+00  0.0000000000000000e+00  0.0000000000000000e+00  0.0000000000000000e+00  0.0000000000000000e+00  0.0000000000000000e+00  0.0000000000000000e+00  0.0000000000000000e+00  0.0000000000000000e+00  0.0000000000000000e+00  0.0000000000000000e+00  0.0000000000000000e+00  0.0000000000000000e+00  0.0000000000000000e+00  0.0000000000000000e+00  0.0000000000000000e+00  0.0000000000000000e+00  0.0000000000000000e+00  0.0000000000000000e+00  0.0000000000000000e+00  0.0000000000000000e+00  0.0000000000000000e+00  0.0000000000000000e+00  0.0000000000000000e+00  0.0000000000000000e+00  0.0000000000000000e+00  0.0000000000000000e+00  0.0000000000000000e+00  0.0000000000000000e+00  0.0000000000000000e+00  0.0000000000000000e+00  0.0000000000000000e+00  0.0000000000000000e+00  0.0000000000000000e+00  0.0000000000000000e+00  0.0000000000000000e+00  0.0000000000000000e+00  0.0000000000000000e+00  0.0000000000000000e+00  0.0000000000000000e+00  0.0000000000000000e+00  0.0000000000000000e+00  0.0000000000000000e+00  0.0000000000000000e+00  0.0000000000000000e+00  0.0000000000000000e+00  0.0000000000000000e+00  0.0000000000000000e+00  0.0000000000000000e+00  0.0000000000000000e+00  0.0000000000000000e+00  0.0000000000000000e+00  0.0000000000000000e+00  0.0000000000000000e+00  0.0000000000000000e+00  0.0000000000000000e+00  0.0000000000000000e+00  0.0000000000000000e+00  0.0000000000000000e+00  0.0000000000000000e+00  0.0000000000000000e+00  0.0000000000000000e+00  0.0000000000000000e+00  0.0000000000000000e+00  0.0000000000000000e+00  0.0000000000000000e+00  0.0000000000000000e+00  0.0000000000000000e+00  0.0000000000000000e+00  0.0000000000000000e+00  0.0000000000000000e+00  0.0000000000000000e+00  0.0000000000000000e+00  0.0000000000000000e+00  0.0000000000000000e+00  0.0000000000000000e+00  0.0000000000000000e+00  0.0000000000000000e+00  0.0000000000000000e+00  0.0000000000000000e+00  0.0000000000000000e+00  0.0000000000000000e+00  0.0000000000000000e+00  0.0000000000000000e+00  0.0000000000000000e+00  0.0000000000000000e+00  0.0000000000000000e+00  0.0000000000000000e+00  0.0000000000000000e+00  0.0000000000000000e+00  0.0000000000000000e+00  0.0000000000000000e+00  0.0000000000000000e+00  0.0000000000000000e+00  0.0000000000000000e+00  0.0000000000000000e+00  0.0000000000000000e+00  0.0000000000000000e+00  0.0000000000000000e+00  0.0000000000000000e+00  0.0000000000000000e+00  0.0000000000000000e+00  0.0000000000000000e+00  0.0000000000000000e+00  0.0000000000000000e+00  0.0000000000000000e+00  0.0000000000000000e+00  0.0000000000000000e+00  0.0000000000000000e+00  0.0000000000000000e+00  0.0000000000000000e+00  0.0000000000000000e+00  0.0000000000000000e+00  0.0000000000000000e+00  0.0000000000000000e+00  0.0000000000000000e+00  0.0000000000000000e+00  0.0000000000000000e+00  0.0000000000000000e+00  0.0000000000000000e+00  0.0000000000000000e+00  0.0000000000000000e+00  0.0000000000000000e+00  0.0000000000000000e+00  0.0000000000000000e+00  0.0000000000000000e+00  0.0000000000000000e+00  0.0000000000000000e+00  0.0000000000000000e+00  0.0000000000000000e+00  0.0000000000000000e+00  0.0000000000000000e+00  0.0000000000000000e+00  0.0000000000000000e+00  0.0000000000000000e+00  0.0000000000000000e+00  0.0000000000000000e+00  0.0000000000000000e+00  0.0000000000000000e+00  0.0000000000000000e+00  0.0000000000000000e+00  0.0000000000000000e+00  0.0000000000000000e+00  0.0000000000000000e+00  0.0000000000000000e+00  0.0000000000000000e+00  0.0000000000000000e+00  0.0000000000000000e+00  0.0000000000000000e+00  0.0000000000000000e+00  0.0000000000000000e+00  0.0000000000000000e+00  0.0000000000000000e+00  0.0000000000000000e+00  0.0000000000000000e+00  0.0000000000000000e+00  0.0000000000000000e+00  0.0000000000000000e+00  0.0000000000000000e+00  0.0000000000000000e+00  0.0000000000000000e+00  0.0000000000000000e+00  0.0000000000000000e+00  2.9058716758737836e-03  2.9816289987914654e-03  2.9996733715163728e-03  2.9832850754113989e-03  2.9847256462101957e-03  2.9761787918776489e-03  2.9873191912114403e-03  2.9947304028113317e-03  2.9820238325184256e-03  2.9905887813935590e-03  2.9689165866658889e-03  2.9165893389753177e-03  2.9222845001971847e-03  2.9213177194814806e-03  2.9640391817152248e-03  2.9925345475352630e-03  2.9594967274722281e-03  2.9211517565161634e-03  2.7184862332183079e-03  2.6644147091031581e-03  2.6734007005225543e-03  2.6929962048728526e-03  2.7014027023003471e-03  2.6956108470273395e-03  2.5177071705100671e-03  2.6633599145360087e-03  2.9299099314914262e-03  2.9691806286600998e-03  2.9420329864773588e-03  2.9297031571506186e-03  2.9384327814899760e-03  2.5067399598988718e-03  2.7231706084064841e-03  2.6862960624499852e-03  2.6695931229169544e-03  2.9339102200125508e-03  2.8465620569131226e-03  2.6943726344233294e-03  2.7826159192180957e-03  2.6085840212633727e-03  2.6420979262779592e-03  2.6351116050303517e-03  2.6031551209964965e-03  3.2142810081988793e-03  3.2061212759405900e-03  3.2026727413769517e-03  3.2886247349143160e-03  3.2325169042785730e-03  3.2320111211493864e-03  3.1395109123273451e-03  1.7599636160578531e-04  1.7933413845134616e-04  2.0493896844334700e-04  1.4151828918119511e-04  3.0673096721470358e-04  3.1431969791514817e-03  3.2109346632890827e-04  2.9444244664865292e-04  4.5286400664906654e-05  3.7976128961242470e-04  8.2728127605108661e-05  7.8264868566432734e-05  4.1627889744239575e-04  2.6280373331722090e-04  3.1191449410005643e-03  3.2451505175232435e-03  3.1896361682231889e-03  3.1955488171982074e-03  3.1051071150430035e-03  3.0143011575141580e-03  3.1136429016238656e-03  2.8969419460229563e-03  2.7718760977596406e-03  3.1196469197023189e-03  3.2403464762543019e-03  3.1904751340981726e-03  3.1906224991077913e-03  3.1045746839129802e-03  3.0167510675964621e-03  3.1147357980656990e-03  2.8975824548830354e-03  3.0236803215183531e-03  2.7645635557332292e-03  2.8869926854481992e-03  2.5865225004233728e-03  2.7045727971720264e-03  2.8560433696980781e-03  2.9461716137902947e-03  3.0221304299967839e-03  2.7603379822045463e-03  2.8900066228837633e-03  2.5940595201127069e-03  2.7087500206687998e-03  2.4639257679301371e-03  2.3873390125669180e-03  2.4917138216295764e-03  2.4088176589814902e-03  2.4959325324920311e-03  2.6509964629663403e-03  2.7225125678638157e-03  1.9413520765075736e-04  1.8883729916606445e-04  1.9161108436412845e-04  1.1170801680234070e-04  2.7712830933467737e-03  2.5279186278190017e-03  2.2610378067725720e-03  2.7629983477675747e-03  2.4958803471081992e-03  2.6998714192112637e-03  2.3971739793821772e-03  2.5714245939425732e-03  2.7701661133238968e-03  2.5259835263365354e-03  2.7660899013875182e-03  2.4952542121957802e-03  2.7008986627677762e-03  2.2538333098394590e-03  2.3990423567930037e-03  2.5751026678163609e-03  2.2404798692561593e-03  2.3871501542724201e-03  2.2364480128828431e-03  2.3809416135222787e-03  2.0741797299711519e-03  2.4178742942409987e-03  2.4672951212520210e-03  2.7477642798945717e-03  2.4737291919155403e-03  2.2831217002680375e-03  2.1765560580947504e-03  2.1634415415566592e-03  2.4218804349535284e-03  2.0884331714348804e-03  2.2992131102713919e-03  1.9472827093624202e-03  2.1076498146291294e-03  2.0815855832729737e-03  1.7426959726145092e-03  2.8303277760868812e-04  2.0274612579468275e-03  2.1463126612423070e-03  2.4987931241810543e-03  2.2394848561526452e-03  2.5764732705925858e-03  2.3071328740182201e-03  2.6216345688290722e-03  2.3435585877337548e-03  2.6323400447174363e-03  2.3480042375171343e-03  2.6102646480551718e-03  2.3105367502999608e-03  2.5469338453479018e-03  2.2282983788685659e-03  2.4221850544987249e-03  2.0925173092897330e-03  2.2413062270480867e-03  2.0447505460708042e-03  1.9061784573619401e-03  2.0050081440782168e-03  2.3292161513168218e-03  2.0411977159432702e-03  1.8836683172795486e-03  1.7539219897429127e-03  1.5672705630274065e-03  2.3553873219829811e-03  2.0277494683855961e-03  1.4081849085439092e-03  2.0189085190643512e-03  1.7082231995998564e-03  1.2300530899947309e-03  2.7118439655784156e-03  2.6345199245926274e-03  2.9951277012591409e-04  2.1457523545451098e-04  1.4359711779157456e-04  1.5910198194668827e-03  1.8294521801834635e-04  1.4177625501106156e-04  1.8704043759459014e-03  2.8776966164018244e-03  1.6533529385190757e-03  1.8618479349397795e-03  1.8364046067986233e-03  1.1641472019077095e-04  1.9295923852114263e-03  2.6429059451630317e-03  1.9879362956152849e-03  1.3924990058791894e-03  2.3414486152883570e-03  2.6345040786348224e-03  1.7208628752313244e-03  2.8301916144314650e-03  1.6482367728447979e-03  1.5116333339477820e-03  3.2279979143183795e-03  2.1395376580007667e-03  1.7325535858932733e-03  1.6349873775898913e-03  2.8815820450911380e-03  2.9496187867810476e-03  2.9116228323671817e-03  2.8966336178519597e-03  1.0727275707099338e-03  1.1931960734604442e-03  1.3364101006236963e-03  9.1330520085956899e-04  1.2364364443837518e-03  1.3776659128314516e-03  1.0171227137434162e-03  1.5398013143595323e-03  1.0558181845234593e-03  3.0208383665559098e-03  1.5335335868410203e-03  1.7348493775266192e-03  1.2480285055015998e-03  1.2569393045418886e-03  2.5763542615896006e-03  8.6151733890152469e-04  3.1437946031140345e-03  3.1368413236056410e-03  1.1343837119958664e-03  1.3675971341424607e-03  1.1602519305943708e-03  1.4576043642445327e-03  1.8600464376425448e-03  1.4229987284171326e-03  3.1231126899497214e-03  1.8632656163393658e-03  1.4991696380270954e-03  1.6242432573142849e-03  1.2699388608929153e-03  1.3635119346906265e-03  1.0456649769150688e-03  1.0936248120216876e-03  1.0187930772660905e-03  1.0216770768595369e-03  3.3350148976455511e-03  3.1348190992461842e-03  8.7174942820215863e-04  9.3990549171012476e-04  1.3920471257000118e-03  1.0867696394891448e-03  8.2352620792192999e-04  7.9138437799980313e-04  3.2264547948308007e-03  9.7058741684319567e-04  1.1183148177930820e-03  7.2382403849258908e-04  6.2626305871443745e-04  3.2348943405048607e-03  1.3881401998640623e-03  1.0246320146549903e-03  5.6608593265613551e-04  3.2309621263780647e-03  3.3506263322741706e-03  3.3418471280322153e-03  1.1050066826797178e-03  1.3080176680811142e-03  1.5021869405203957e-03  1.1167000552793265e-03  1.9290463238915343e-03  1.6953126422471327e-03  1.2531097719739222e-03  1.4414541375228000e-03  1.8720831923649439e-03  1.6082371509531684e-03  2.0163777233581726e-03  2.8085237746693194e-03  1.7487118004508838e-03  1.3496618231669802e-03  3.3454268510510867e-03  3.3292394957546156e-03  3.3618310437183180e-03  3.3939386387892316e-03  8.1906721783755055e-04  7.3882081637474163e-04  4.3295456227427105e-05  9.6374778468818673e-05  1.1205674587399755e-04  8.0344639155090984e-05  7.6743383518964377e-04  6.4941528377024675e-04  7.3372554738887887e-04  1.9701914391345413e-03  3.3401346200289590e-03  3.3800871179428824e-03  3.3979901967579086e-03  3.3075215877558213e-03  3.4115495414776984e-03  3.3883221959094224e-03  2.2702537461797793e-03  2.3829230578712459e-03  1.2701816453254910e-03  9.5447510706121491e-04  1.3004363905307643e-03  9.2114588102323479e-04  1.3034411643444547e-03  9.1341749410764502e-04  1.2624451750465936e-03  8.6658481060828991e-04  5.3674314798903607e-04  1.5333804128175013e-03  1.1161580464786438e-03  1.0189079842915375e-03  5.7580117064238425e-04  1.7669780118473625e-03  1.3479085689927894e-03  1.7106804113264746e-03  1.2191665988564107e-03  1.5074483601603622e-03  1.0839772338123231e-03  1.3460675686120776e-03  1.7696915814763524e-03  1.6013474524665379e-03  1.1672544238648340e-03  1.4232392382560158e-03  1.0040655547609578e-03  1.2518793765300242e-03  1.6457637551203668e-03  1.4318131107936448e-03  1.0037331644932466e-03  1.2108328189206446e-03  8.5126670890898093e-04  9.8448878834204610e-04  1.3198111567864605e-03  1.0525181309887081e-03  1.3466274049634018e-03  1.0445143796993035e-03  8.0758371754763357e-04  1.2960972999755710e-03  9.6164398262488769e-04  1.1692183071972647e-03  1.6315191069179670e-03  6.5695814947301840e-04  8.1213597811400544e-04  9.7633145795851387e-04  6.4646735296945744e-04  2.2603043223982096e-03  3.3045374504113855e-03  3.3561061685407944e-03  8.7054244143771806e-04  1.2090958046338007e-03  8.0230987854263292e-04  3.1468636575998103e-03  3.3266883883936163e-03  3.2221138776910413e-03  1.1081719065923301e-03  7.1221751815110060e-04  7.8216923449418913e-04  2.6169863990585804e-03  2.6934137108377684e-03  6.9584004187614619e-04  1.6284495992018196e-03  3.4027962843292308e-03  5.2051602690737677e-04  3.5543150978865749e-04  6.8861479430240894e-04  1.3594258030074525e-03  3.3488034696131318e-03  3.3786305243406014e-03  1.8106455267662747e-03  4.8078601478463508e-04  3.8667274925293385e-04  3.2643227962891085e-03  3.2492223902153921e-03  1.1433464507631479e-03  7.3788920354592657e-04  5.5145458119210751e-04  4.6647180979303416e-04  3.7202336790449818e-04  1.1476238875883279e-03  1.5663547649224017e-03  1.0039051022286136e-03  1.3359332800408357e-03  1.6600473670260432e-03  5.7814966973502397e-04  3.9789146784478206e-04  1.0751891739673274e-03  7.3921065639523842e-04  6.5278694447272727e-04  1.3976360025943484e-03  3.9553944235243027e-04  5.8740828478733248e-04  5.2060658788496657e-04  2.4556357299247130e-03  9.0282329598745620e-04  6.8293125040584657e-04  1.9529990899409418e-03  3.2177046252128277e-03  8.2246114088363183e-04  4.9868271091702433e-04  7.5724487799531319e-04  9.1456519248025992e-04  3.2542090115926293e-03  3.2965041736514756e-03  3.1549494706162077e-03  3.7369630940938767e-04  1.4682778334654356e-03  9.1824238483406879e-04  5.1230197767507431e-04  3.2535443094533823e-03  3.3745476069299480e-03  3.4093214483516764e-03  3.3947490279965130e-03  3.3950232917857705e-03  3.3141913387494419e-03  3.4026301160204248e-03  3.3519932081268519e-03  3.2540905536732920e-03  3.3978491255242595e-03  3.3000762613337488e-03  1.7087625269371735e-03  2.0723258754492017e-03  2.1489617494394563e-03  3.1076571736057156e-04  2.4680692342549148e-04  3.5964250816998946e-04  3.2557073482388406e-03  2.5855758464549204e-04  1.9729800846692526e-04  7.8481173188026370e-04  3.2312527679106569e-03  3.3935207262724672e-03  3.3885984892441171e-03  3.4400324743481554e-03  3.3671218242618105e-03  3.3526857851267121e-03  3.4208433014382847e-03  3.2725207068544878e-03  3.3377341231293142e-03  3.1226702292688089e-03  3.2125428740596334e-03  3.4309706486755657e-03  3.0497989793766534e-03  3.1808691045180802e-03  2.6952621481542917e-03  3.2961661650391279e-03  3.2900040043825221e-03  3.2874120135538013e-03  5.0683764489730960e-04  3.4277355961283127e-04  4.3829994325225447e-04  3.3632566955022299e-04  3.2287476116030483e-03  3.3534584863475982e-03  2.0299002616447144e-03  6.4883979932381939e-04  2.8610730368955929e-03  2.5627549023268911e-03  1.8431954520796113e-03  2.7091053139712698e-03  2.7287394742761856e-03  2.8971458798240320e-03  2.9799416400104833e-03  3.2547271164507273e-03  3.2309803843883680e-03  2.1197603751555755e-03  2.3221774330249041e-03  2.1226767013592927e-03  2.7138763488665751e-04  5.3853274687635144e-04  1.9213217892094818e-03  3.9444018401051090e-04  5.3504996271377275e-04  2.9058767363416963e-03  2.8528623073577671e-03  3.0361672908320431e-03  2.8220045568992510e-03  2.5046946130064334e-03  3.3203512761734567e-04  2.9135705033333771e-04  6.4116840797385913e-04  3.3236611023937292e-04  7.3294974626123845e-04  3.3210209754759730e-03  1.5278189266451114e-03  1.6438067130748891e-03  1.9699471264224334e-03  1.8734821995536946e-03  2.5017358621298963e-03  2.6077391119656819e-03  2.9240467165039148e-03  1.8404068356790121e-04  2.9908175460266122e-03  2.6962029570517252e-04  5.2210811406133175e-04  3.1607975693368055e-03  1.5722618235313678e-03  1.4038598548059335e-04  4.1148318931130630e-04  2.7059881899543308e-03  1.7978175361888161e-04  1.8321513763010306e-04  2.9935502056210074e-03  4.7827142053119797e-04  1.6747931760036094e-03  3.3339983400397071e-04  2.9142214047880470e-04  7.2100382175407484e-04  3.3504716060886377e-04  3.2868774871260242e-04  6.8655500782449348e-04  7.0099551857510543e-04  9.7956091973330599e-04  3.1504110330037522e-03  2.9261234502664710e-04  6.6325547065713096e-04  5.9176313235738724e-04  2.7474712108323306e-04  5.3920422519506891e-04  2.4350004509302888e-04  2.3834239354228754e-03  1.9879266353816294e-03  1.4476796102829835e-04  2.2874274441972079e-04  4.1048323697451538e-04  2.5610635636193527e-04  4.6181744013094796e-04  1.2175672531560405e-04  4.4516506179429974e-04  1.5273444324289594e-04  5.5689350033927049e-04  1.5568991322748417e-04  7.0585888070441377e-04  8.3840855687683982e-05  3.3380185018148092e-03  5.1371668551551360e-04  3.2632603041398548e-03  1.5394699570431506e-03  3.2610957661574872e-03  1.0878228950806251e-04  3.1829806184949880e-03  1.2595715646980668e-04  3.1930024215632014e-03  1.3115889044898422e-04  3.4328285634775701e-04  3.3220291691181234e-03  9.2592214485084990e-05  3.0080004608149013e-03  2.5962202544970250e-04  1.7218958441921881e-03  2.7359158471337446e-04  1.0060881864425687e-03  6.0287372541063377e-04  1.5818039222099123e-03  1.1905721342669840e-03  8.5700643945632842e-04  2.1051414575157098e-03  1.6561620205155416e-03  3.2520608408611244e-03  2.2355902530108674e-03  1.9209548896011108e-03  3.0287037677643389e-03  2.6184187051327776e-03  3.1616128219272045e-03  2.3166260274856236e-03  8.1574401904025882e-04  2.1870524115867353e-03  1.3471390806389643e-03  2.5678510747187226e-04  2.4616672161751080e-03  1.3746551959267750e-03  3.0033678141900490e-03  2.1476497026235537e-03  7.6696507453287292e-04  2.9658501954692449e-03  2.9837548643850838e-03  1.1317463946524723e-03  1.6213778506843602e-03  1.9488075642370506e-03  5.9825637728147388e-04  1.8357097218291475e-03  2.0644577206960025e-03  1.7420569122192468e-03  1.8770150065475502e-03  1.5675021759380403e-03  3.3272074334551746e-04  7.5366920768467436e-04  7.5723903231237667e-04  8.9632195179988809e-04  9.4134365440888524e-04  4.3152813891583140e-04  1.7189195610417222e-03  3.1203658868024296e-03  1.7709969873680479e-03  2.5609514983348249e-03  1.4625833271325462e-04  1.9035852143127869e-03  1.1853670177057055e-03  1.9981316567177815e-03  2.6164946634619486e-03  1.0471025166762938e-03  8.8433750590270451e-05  2.3066523285136102e-03  1.3224479361816698e-03  2.0903231981511026e-03  1.0750607486494589e-03  6.8258323053303356e-05  3.4377133000789580e-03  1.8892268932885977e-03  7.7485508604086223e-04  2.2019961994347343e-03  9.9817897355046576e-05  2.4202917713622468e-03  1.8603827539422882e-03  2.0875494432518213e-03  3.3628535064747886e-03  9.0779438219122901e-05  4.9401995536512149e-04  5.2579312746193498e-04  1.5868419274047156e-04  3.3514379306429174e-03  1.6704942619312933e-03  2.8403487832285076e-03  2.2630269971521517e-03  2.9880896180281037e-04  1.5462059234112007e-03  1.7257243160354893e-03  3.1537002026797937e-03  2.2075059678637416e-03  5.5164036921182122e-04  5.9399579875905266e-04  3.2831688803770585e-03  1.9949919767127880e-04  3.2300377476531675e-03  1.5243957305315097e-04  2.2074562620869303e-03  3.2853019137603886e-03  3.3359026936993053e-04  5.6376480862948685e-04  1.5024695577884890e-03  3.3526164577638109e-03  3.9108496190405341e-04  1.4750475094375561e-03  6.9139246042212521e-04  1.2056920856367075e-04  7.9191779418612425e-04  5.4370572343103753e-04  1.9665112354261710e-03  6.8450441368907822e-05  3.2113151655765657e-03  2.9342759286086328e-03  9.6159350214539813e-04  3.3340958433923282e-03  1.1515001783226674e-04  1.2085120701314416e-03  9.1415250267854083e-04  3.5497472132124875e-04  3.0147262007847002e-03  6.3889271349469535e-04  1.3429309286725208e-03  3