<?xml version="1.0"?>
<VTKFile type="UnstructuredGrid"  version="0.1"  >
<UnstructuredGrid>
<Piece  NumberOfPoints="1251" NumberOfCells="2404">
<Points>
<DataArray  type="Float64"  NumberOfComponents="3"  format="ascii">0 0 0  0 1 0  1 1 0  1 0 0  1.1 -0.1 0  -0.1 -0.1 0  1.1 1.1 0  -0.1 1.1 0  0.500213143659813 0.5003072085782748 0  0.2496086326189857 0.5436653333908226 0  0 0.9499999999997918 0  0 0.8999999999995836 0  0 0.8499999999996529 0  0 0.7999999999999998 0  0 0.7500000000003466 0  0 0.7000000000006934 0  0 0.6500000000010401 0  0 0.6000000000013869 0  0 0.5500000000017335 0  0 0.5000000000020587 0  0 0.4500000000018723 0  0 0.4000000000016644 0  0 0.3500000000014564 0  0 0.3000000000012483 0  0 0.2500000000010403 0  0 0.2000000000008322 0  0 0.1500000000006241 0  0 0.100000000000416 0  0 0.05000000000020799 0  0.04999999999989965 0 0  0.09999999999981467 0 0  0.1499999999997036 0 0  0.1999999999995579 0 0  0.2499999999994121 0 0  0.2999999999992664 0 0  0.3499999999991206 0 0  0.3999999999989749 0 0  0.4499999999988292 0 0  0.4999999999986943 0 0  0.5499999999988151 0 0  0.5999999999989468 0 0  0.6499999999990784 0 0  0.69999999999921 0 0  0.7499999999993417 0 0  0.7999999999994734 0 0  0.8499999999996051 0 0  0.8999999999997368 0 0  0.9499999999998684 0 0  1 0.04999999999989965 0  1 0.09999999999981467 0  1 0.1499999999997036 0  1 0.1999999999995579 0  1 0.2499999999994121 0  1 0.2999999999992664 0  1 0.3499999999991206 0  1 0.3999999999989749 0  1 0.4499999999988292 0  1 0.4999999999986943 0  1 0.5499999999988151 0  1 0.5999999999989468 0  1 0.6499999999990784 0  1 0.69999999999921 0  1 0.7499999999993417 0  1 0.7999999999994734 0  1 0.8499999999996051 0  1 0.8999999999997368 0  1 0.9499999999998684 0  0.9499999999997918 1 0  0.8999999999995836 1 0  0.8499999999996529 1 0  0.7999999999999998 1 0  0.7500000000003466 1 0  0.7000000000006934 1 0  0.6500000000010401 1 0  0.6000000000013869 1 0  0.5500000000017335 1 0  0.5000000000020587 1 0  0.4500000000018723 1 0  0.4000000000016644 1 0  0.3500000000014564 1 0  0.3000000000012483 1 0  0.2500000000010403 1 0  0.2000000000008322 1 0  0.1500000000006241 1 0  0.100000000000416 1 0  0.05000000000020799 1 0  -0.1 1.05000000000004 0  -0.1 1.000000000000079 0  -0.1 0.9500000000001624 0  -0.1 0.9000000000003032 0  -0.1 0.850000000000444 0  -0.1 0.8000000000005848 0  -0.1 0.7500000000007256 0  -0.1 0.7000000000008665 0  -0.1 0.6500000000010508 0  -0.1 0.6000000000012352 0  -0.1 0.5500000000014196 0  -0.1 0.500000000001539 0  -0.1 0.4500000000014195 0  -0.1 0.4000000000013 0  -0.1 0.3500000000011588 0  -0.1 0.3000000000010178 0  -0.1 0.2500000000008986 0  -0.1 0.2000000000007579 0  -0.1 0.1500000000006174 0  -0.1 0.1000000000005272 0  -0.1 0.05000000000040083 0  -0.1 2.671196597248127e-13 0  -0.1 -0.0499999999998666 0  -0.0500000000000906 -0.1 0  -1.730560139634463e-13 -0.1 0  0.04999999999975802 -0.1 0  0.09999999999961506 -0.1 0  0.1499999999994613 -0.1 0  0.199999999999302 -0.1 0  0.2499999999991446 -0.1 0  0.2999999999990088 -0.1 0  0.3499999999988296 -0.1 0  0.3999999999986936 -0.1 0  0.4499999999985143 -0.1 0  0.4999999999984002 -0.1 0  0.5499999999985247 -0.1 0  0.5999999999986493 -0.1 0  0.6499999999987955 -0.1 0  0.6999999999989417 -0.1 0  0.7499999999990659 -0.1 0  0.7999999999992116 -0.1 0  0.8499999999993573 -0.1 0  0.8999999999994526 -0.1 0  0.949999999999584 -0.1 0  0.9999999999997226 -0.1 0  1.049999999999861 -0.1 0  1.1 -0.0500000000000906 0  1.1 -1.730560139634463e-13 0  1.1 0.04999999999975802 0  1.1 0.09999999999961506 0  1.1 0.1499999999994613 0  1.1 0.199999999999302 0  1.1 0.2499999999991446 0  1.1 0.2999999999990088 0  1.1 0.3499999999988296 0  1.1 0.3999999999986936 0  1.1 0.4499999999985143 0  1.1 0.4999999999984002 0  1.1 0.5499999999985247 0  1.1 0.5999999999986493 0  1.1 0.6499999999987955 0  1.1 0.6999999999989417 0  1.1 0.7499999999990659 0  1.1 0.7999999999992116 0  1.1 0.8499999999993573 0  1.1 0.8999999999994526 0  1.1 0.949999999999584 0  1.1 0.9999999999997226 0  1.1 1.049999999999861 0  1.05000000000004 1.1 0  1.000000000000079 1.1 0  0.9500000000001624 1.1 0  0.9000000000003032 1.1 0  0.850000000000444 1.1 0  0.8000000000005848 1.1 0  0.7500000000007256 1.1 0  0.7000000000008665 1.1 0  0.6500000000010508 1.1 0  0.6000000000012352 1.1 0  0.5500000000014196 1.1 0  0.500000000001539 1.1 0  0.4500000000014195 1.1 0  0.4000000000013 1.1 0  0.3500000000011588 1.1 0  0.3000000000010178 1.1 0  0.2500000000008986 1.1 0  0.2000000000007579 1.1 0  0.1500000000006174 1.1 0  0.1000000000005272 1.1 0  0.05000000000040083 1.1 0  2.671196597248127e-13 1.1 0  -0.0499999999998666 1.1 0  0.2550038475478251 0.5677842991874372 0  0.2632312306513758 0.5911000486359496 0  0.2741355282121297 0.6133542704994753 0  0.2874698837158986 0.6342998145767224 0  0.3029465664297498 0.6537756042035029 0  0.3202864327307244 0.6717033200239744 0  0.3392352021518976 0.6879627713725947 0  0.3596282055553288 0.7024525559775064 0  0.3812409141220552 0.7151058329866292 0  0.4038742139955181 0.7258797451035416 0  0.4273339284363467 0.7346418303924713 0  0.4514646283400088 0.7412636633550047 0  0.4760690151493941 0.7457484078431325 0  0.5009324979940477 0.7479350672524575 0  0.5258655510177548 0.7476620253277434 0  0.5506062599877948 0.7448741879626031 0  0.5748598274838608 0.7394842661858696 0  0.5983767954460379 0.7315139459882617 0  0.6208757230452864 0.7210612944169859 0  0.642133266665708 0.7083005054487443 0  0.6619546385900016 0.6934255589568274 0  0.6801494494787861 0.6766086948619575 0  0.6965315461094983 0.6580263164608573 0  0.7109339766915149 0.637858737686394 0  0.7231863928054471 0.6163071936228398 0  0.7331328836632307 0.5935838214923078 0  0.7406348239122635 0.5699242319996074 0  0.7456143349618745 0.5455709414340391 0  0.7480383583767857 0.5207993580380839 0  0.7478985194511948 0.495881748076186 0  0.7452888463361349 0.4710588346263049 0  0.7403341164272342 0.4465584636057819 0  0.733179260989973 0.4225717815902582 0  0.7239378208860708 0.3992834277512901 0  0.7127369551267362 0.3768662232698763 0  0.6996603209634829 0.3555135492923795 0  0.6847987121706072 0.3353882144493176 0  0.6682203853192812 0.3167113694638379 0  0.6499652010467778 0.2996974672089652 0  0.6301600034972342 0.2846789384546972 0  0.6089287675848432 0.2718295870499845 0  0.5864576042512144 0.2614077311638262 0  0.5629557985881286 0.2537115233839794 0  0.5387211365083672 0.2488900925627823 0  0.514087649318172 0.2469635011662386 0  0.4893805100177505 0.2478716486063042 0  0.4648858186347252 0.2514951185391848 0  0.4408447812349426 0.2576256822536978 0  0.4174484296414325 0.2660305308463867 0  0.3948690828096032 0.2765444377042524 0  0.3732844710888885 0.2890528001442498 0  0.3529056117660991 0.3035408160158918 0  0.3338340581055667 0.3197522370060886 0  0.3162756265749409 0.3375777026630085 0  0.3003507119265838 0.356883911334245 0  0.2862744948367612 0.3775280870896997 0  0.2741400211286478 0.3993322443347154 0  0.2640246141226864 0.4221127300676443 0  0.2561311844242865 0.4456628094148662 0  0.2505485239078442 0.4698174563461459 0  0.2474749182953694 0.4943665206889198 0  0.2471196423645105 0.5190802490446046 0  0.5467854143783578 0.2721300910463037 0  0.6261398786123679 0.3095291856250828 0  0.4580587091294721 0.2736826554129965 0  0.271671545602557 0.5506052494705003 0  0.3123335439788796 0.633520182666908 0  0.2742405297328846 0.462907910493071 0  0.6565445573773995 0.6693281332829513 0  0.7094352291327777 0.5963296314597037 0  0.7279034806936292 0.5093262825091576 0  0.5808160010534364 0.715206684382814 0  0.489711159865906 0.7234931004934554 0  0.3116966604316169 0.3794836704162401 0  0.3727293816395749 0.3101753178093686 0  0.4232875131555924 0.7097930088059727 0  0.6866641477048471 0.3762555113119095 0  0.7173302728991848 0.4404695155983444 0  0.3618157796180095 0.6773095002819183 0  0.3395700811673274 0.3429886115196834 0  0.4152917617827472 0.2899192476025856 0  0.2888637681298931 0.419569506410645 0  0.660059116279769 0.3402387776733214 0  0.6866692274919303 0.6352188135463602 0  0.5345508332325417 0.7263411598334428 0  0.7232788330116516 0.5541440002207032 0  0.6216321336226915 0.6973230425787641 0  0.5026912813478897 0.2687001583324387 0  0.2680611149169485 0.506002087292869 0  0.2866595505178615 0.5931509175627372 0  0.5924561529211252 0.2852050825318061 0  0.3819066456487575 0.6913585107942352 0  0.3852446072402507 0.6670199210251192 0  0.3643036374932243 0.6520993397036131 0  0.3886235712631573 0.6418399066360559 0  0.3654305995515345 0.6260361973401087 0  0.3947590647848387 0.6131938064450397 0  0.4196180274037222 0.6310723754881324 0  0.3690741776891357 0.5982194805672199 0  0.3948821457439077 0.5829766459552529 0  0.3622955106075486 0.5640728620615091 0  0.4298598161724945 0.5945896707120081 0  0.4536235327298574 0.6363917412902843 0  0.4792111230373595 0.5980437443975052 0  0.4897191942790707 0.6384089333434718 0  0.521224618982878 0.6080681163275428 0  0.551652634251569 0.6435059123782272 0  0.566828839782667 0.6066625563680526 0  0.4110046191867975 0.5473373300569148 0  0.3734959604566638 0.5203566271134258 0  0.5879891803691317 0.6367332374868198 0  0.6106714406427115 0.611055981491754 0  0.591297461064796 0.5724882072147764 0  0.6382634579567337 0.5781823620845865 0  0.6168518566815657 0.540286990735977 0  0.6549306052719782 0.5443061941364378 0  0.6446046650712038 0.5054759077564767 0  0.6009201158476869 0.502388919474842 0  0.6315536777357376 0.4665945950642343 0  0.5847001710813515 0.4631063136214953 0  0.6169511340542299 0.428613459273759 0  0.5697332193109546 0.4231220864727592 0  0.6009874327179962 0.3900653329884959 0  0.5538107250414237 0.3845288904844817 0  0.5811954535260452 0.3569754527638855 0  0.5441417278484756 0.3460181405602683 0  0.5167324429338264 0.3770450596904731 0  0.5014548810439056 0.3384682155051379 0  0.4802969442213501 0.368444075941951 0  0.4658898792391918 0.3371383805840132 0  0.4406255527128036 0.3583705808607974 0  0.455945487
[...]
<PointData  Scalars="v"> 
<DataArray  type="Float64"  Name="v"  format="ascii">0.0000000000000000e+00  0.0000000000000000e+00  0.0000000000000000e+00  0.0000000000000000e+00  0.0000000000000000e+00  0.0000000000000000e+00  0.0000000000000000e+00  0.0000000000000000e+00  1.9164933953234630e-05  1.7172947693312241e-05  0.0000000000000000e+00  0.0000000000000000e+00  0.0000000000000000e+00  0.0000000000000000e+00  0.0000000000000000e+00  0.0000000000000000e+00  0.0000000000000000e+00  0.0000000000000000e+00  0.0000000000000000e+00  0.0000000000000000e+00  0.0000000000000000e+00  0.0000000000000000e+00  0.0000000000000000e+00  0.0000000000000000e+00  0.0000000000000000e+00  0.0000000000000000e+00  0.0000000000000000e+00  0.0000000000000000e+00  0.0000000000000000e+00  0.0000000000000000e+00  0.0000000000000000e+00  0.0000000000000000e+00  0.0000000000000000e+00  0.0000000000000000e+00  0.0000000000000000e+00  0.0000000000000000e+00  0.0000000000000000e+00  0.0000000000000000e+00  0.0000000000000000e+00  0.0000000000000000e+00  0.0000000000000000e+00  0.0000000000000000e+00  0.0000000000000000e+00  0.0000000000000000e+00  0.0000000000000000e+00  0.0000000000000000e+00  0.0000000000000000e+00  0.0000000000000000e+00  0.0000000000000000e+00  0.0000000000000000e+00  0.0000000000000000e+00  0.0000000000000000e+00  0.0000000000000000e+00  0.0000000000000000e+00  0.0000000000000000e+00  0.0000000000000000e+00  0.0000000000000000e+00  0.0000000000000000e+00  0.0000000000000000e+00  0.0000000000000000e+00  0.0000000000000000e+00  0.0000000000000000e+00  0.0000000000000000e+00  0.0000000000000000e+00  0.0000000000000000e+00  0.0000000000000000e+00  0.0000000000000000e+00  0.0000000000000000e+00  0.0000000000000000e+00  0.0000000000000000e+00  0.0000000000000000e+00  0.0000000000000000e+00  0.0000000000000000e+00  0.0000000000000000e+00  0.0000000000000000e+00  0.0000000000000000e+00  0.0000000000000000e+00  0.0000000000000000e+00  0.0000000000000000e+00  0.0000000000000000e+00  0.0000000000000000e+00  0.0000000000000000e+00  0.0000000000000000e+00  0.0000000000000000e+00  0.0000000000000000e+00  0.0000000000000000e+00  0.0000000000000000e+00  0.0000000000000000e+00  0.0000000000000000e+00  0.0000000000000000e+00  0.0000000000000000e+00  0.0000000000000000e+00  0.0000000000000000e+00  0.0000000000000000e+00  0.0000000000000000e+00  0.0000000000000000e+00  0.0000000000000000e+00  0.0000000000000000e+00  0.0000000000000000e+00  0.0000000000000000e+00  0.0000000000000000e+00  0.0000000000000000e+00  0.0000000000000000e+00  0.0000000000000000e+00  0.0000000000000000e+00  0.0000000000000000e+00  0.0000000000000000e+00  0.0000000000000000e+00  0.0000000000000000e+00  0.0000000000000000e+00  0.0000000000000000e+00  0.0000000000000000e+00  0.0000000000000000e+00  0.0000000000000000e+00  0.0000000000000000e+00  0.0000000000000000e+00  0.0000000000000000e+00  0.0000000000000000e+00  0.0000000000000000e+00  0.0000000000000000e+00  0.0000000000000000e+00  0.0000000000000000e+00  0.0000000000000000e+00  0.0000000000000000e+00  0.0000000000000000e+00  0.0000000000000000e+00  0.0000000000000000e+00  0.0000000000000000e+00  0.0000000000000000e+00  0.0000000000000000e+00  0.0000000000000000e+00  0.0000000000000000e+00  0.0000000000000000e+00  0.0000000000000000e+00  0.0000000000000000e+00  0.0000000000000000e+00  0.0000000000000000e+00  0.0000000000000000e+00  0.0000000000000000e+00  0.0000000000000000e+00  0.0000000000000000e+00  0.0000000000000000e+00  0.0000000000000000e+00  0.0000000000000000e+00  0.0000000000000000e+00  0.0000000000000000e+00  0.0000000000000000e+00  0.0000000000000000e+00  0.0000000000000000e+00  0.0000000000000000e+00  0.0000000000000000e+00  0.0000000000000000e+00  0.0000000000000000e+00  0.0000000000000000e+00  0.0000000000000000e+00  0.0000000000000000e+00  0.0000000000000000e+00  0.0000000000000000e+00  0.0000000000000000e+00  0.0000000000000000e+00  0.0000000000000000e+00  0.0000000000000000e+00  0.0000000000000000e+00  0.0000000000000000e+00  0.0000000000000000e+00  0.0000000000000000e+00  0.0000000000000000e+00  0.0000000000000000e+00  0.0000000000000000e+00  0.0000000000000000e+00  0.0000000000000000e+00  0.0000000000000000e+00  0.0000000000000000e+00  0.0000000000000000e+00  0.0000000000000000e+00  0.0000000000000000e+00  0.0000000000000000e+00  0.0000000000000000e+00  1.7094868678493374e-05  1.7641242096390508e-05  1.8268311797951694e-05  1.9278980144741324e-05  2.0515684598774984e-05  2.1612258900804538e-05  2.2583415655427693e-05  2.3406628658652420e-05  2.4040987252419362e-05  2.4246727741606239e-05  2.4082658225913480e-05  2.3703362341510898e-05  2.2893772017461572e-05  2.1836588514868463e-05  2.0754629030275013e-05  1.9576506065472958e-05  1.8381279509830678e-05  1.7460034788300281e-05  1.6737509365560607e-05  1.6172027615805818e-05  1.5730022996659586e-05  1.5536490081836975e-05  1.5680680726793343e-05  1.6046972310924166e-05  1.6723949245576845e-05  1.7652219132576928e-05  1.8656833050324370e-05  1.9774253427560734e-05  2.0938381521568924e-05  2.2058902870493502e-05  2.3106538414184993e-05  2.3947432855839686e-05  2.4566593936407351e-05  2.4666339911694576e-05  2.4420031925399702e-05  2.4000105261223922e-05  2.3159331885770402e-05  2.2108458819517165e-05  2.1183901629026553e-05  1.9928031190620327e-05  1.8973233411377983e-05  1.8237773023216427e-05  1.7899129746826231e-05  1.8052401293950356e-05  1.8610360332109338e-05  1.9545065127628049e-05  2.0719434373562140e-05  2.2171153317435934e-05  2.3642106449858560e-05  2.4878246521100498e-05  2.6247087108749712e-05  2.6786873421832933e-05  2.7092777256289117e-05  2.7004858698945291e-05  2.6615166155095903e-05  2.5380971901169879e-05  2.4172716116916951e-05  2.2987064928187144e-05  2.1311177058937749e-05  1.9843563487245420e-05  1.8609317725258495e-05  1.7669177296528661e-05  1.6126321929464485e-05  1.7828420278431925e-05  1.8931972135625656e-05  1.5506842644276868e-05  1.7663338252006964e-05  1.8093524135881765e-05  1.4153021025114013e-05  1.5443157364598661e-05  1.8812917315927932e-05  1.5852234722735175e-05  1.9139538165127189e-05  2.2083233205674944e-05  2.3118112857133972e-05  2.0634736293772940e-05  2.0659749191838812e-05  2.0910523786798004e-05  1.9791162102971035e-05  2.3118217101518391e-05  2.1004287034340528e-05  2.0344354334629889e-05  1.9440104957588556e-05  1.4345424079343901e-05  1.7771668779269790e-05  1.7022885818463890e-05  1.4796410082327488e-05  1.7045976008160692e-05  1.6321804281801913e-05  1.6066561439489892e-05  1.6711501270866087e-05  2.0486180603079729e-05  1.9446022769525587e-05  1.8818257032617997e-05  1.9172801531305329e-05  1.8512791850964453e-05  1.8956225180198496e-05  1.9447688878343260e-05  1.8413808588725281e-05  1.8526699592465591e-05  1.7908223565969108e-05  1.8648110634901453e-05  1.9230884910611700e-05  1.8442057157715031e-05  1.8758339051237300e-05  1.7980319841169822e-05  1.7363275814737480e-05  1.7345501097139654e-05  1.8300527182169542e-05  1.8334211688581192e-05  1.6562224567225755e-05  1.6465675624034403e-05  1.7690196120838819e-05  1.6896932766918130e-05  1.8222993316835499e-05  1.7786529788763060e-05  1.8936662270394788e-05  1.9090192586988964e-05  1.9475856801432912e-05  1.9112182178031062e-05  1.9615047128932140e-05  1.9101376573933863e-05  1.9120294887300498e-05  1.8640738612460237e-05  1.8441787526898334e-05  1.8224914335365769e-05  1.8802108236147354e-05  1.8655453382037290e-05  1.9418259524708882e-05  1.9533152381493262e-05  2.0374921685512961e-05  1.9825977099768640e-05  2.0714672707699511e-05  1.9855926643544159e-05  2.0579111089505840e-05  1.7666527556946103e-05  1.8293652695940592e-05  1.9009069224650650e-05  1.9976911647986156e-05  1.9221417434913653e-05  2.1228839740325264e-05  2.0855717823129546e-05  2.0092300474322103e-05  1.7325992780326133e-05  2.1531805277078212e-05  1.8520430154092185e-05  1.6516944441560957e-05  1.7587991407350986e-05  1.5724517255907100e-05  1.8700948161984450e-05  1.9769348552873396e-05  2.0087605404088012e-05  1.9911182570841748e-05  1.6789651521414718e-05  1.8224003360125194e-05  1.6275550918639761e-05  1.8670708733373651e-05  1.9583871144046208e-05  1.9924235417943153e-05  1.5712129210151559e-05  2.0234402354921787e-05  1.9306102395327109e-05  1.8787807295011912e-05  1.6996991079330973e-05  1.9889415706824269e-05  1.7815780503426119e-05  1.7637942637299567e-05  1.6687017001233735e-05  1.7630146072408044e-05  1.7925818748306263e-05  1.9577793309360602e-05  2.0733604470812600e-05  1.7084892666586091e-05  1.8066137688154419e-05  1.5119430519864842e-05  2.1091062844550014e-05  2.1596782131923539e-05  2.0926278451647891e-05  1.9634593353987030e-05  1.9541912083977526e-05  1.6992535401477591e-05  1.6887338847165600e-05  1.7949043327973713e-05  1.8380284640816759e-05  1.9181212955093682e-05  1.5492616974339118e-05  1.4706286124311824e-05  1.9152146202717768e-05  1.9200267931854481e-05  1.7118519938964131e-05  1.9193157487385543e-05  1.9063364351063375e-05  1.9064534146643162e-05  1.9756642438096602e-05  1.8042630419996372e-05  1.9558520477038900e-05  1.9321550724422155e-05  1.9043590041229320e-05  2.1212614217668232e-05  1.9943466870513941e-05  2.1212343483298590e-05  2.0489311731805855e-05  1.9471027090600902e-05  1.8046196318497981e-05  2.0356384641673187e-05  2.3038273072948936e-05  2.2960104852536471e-05  2.0049547972965317e-05  2.1575236113340928e-05  2.1178624282353445e-05  1.9152389190632605e-05  1.9274473061935485e-05  2.0174792244441606e-05  1.9862209939202952e-05  1.9875584759531790e-05  1.9314543296670326e-05  1.9609715118391846e-05  1.7815571850811409e-05  1.8030409432761598e-05  1.4382935349088788e-05  1.4846881042874051e-05  1.4145140195777487e-05  1.4822165063483286e-05  1.6642750894470413e-05  1.7142564497960365e-05  1.7770011755536476e-05  1.6150469239125928e-05  1.6072141974835494e-05  1.6722271414484861e-05  1.6576532057093267e-05  1.9787061635784989e-05  1.7162073544706867e-05  1.5281374193635267e-05  1.7783670115526134e-05  1.8190137866922360e-05  1.8362255863757876e-05  1.6462634671603906e-05  1.8714592184897135e-05  1.5721662224710999e-05  1.5987764741022808e-05  1.9118539887915582e-05  1.5639236815102105e-05  1.6215441702762114e-05  1.5614030324713135e-05  1.7441696981419615e-05  1.8493752567275560e-05  1.9046170011644608e-05  1.6772048628853983e-05  2.0987316818002531e-05  1.8649321507558072e-05  2.0332318611139487e-05  1.9719649497175466e-05  1.9334056693018256e-05  1.9472175585934416e-05  1.8882291216159304e-05  1.7750483438220395e-05  1.8906487456896237e-05  2.1485745879257502e-05  1.4594710194899337e-05  1.6022174024296936e-05  1.5434106042688253e-05  1.6601564420512511e-05  1.9135754968518575e-05  2.1560926421373440e-05  1.8986535031092761e-05  1.6380585707446227e-05  1.7238633531103700e-05  1.6322101000585764e-05  1.6764754770308300e-05  1.8352456366266039e-05  2.0256980099625079e-05  1.7443137726703515e-05  1.4637667196569933e-05  1.5711842089955898e-05  1.8648402796965817e-05  1.7181974964669816e-05  1.9325622720063918e-05  1.8739258973907194e-05  2.0660002711653742e-05  2.0111737815584190e-05  1.7541025123333576e-05  1.7682044978154977e-05  1.7246950187026155e-05  1.9587937861416482e-05  1.6686840873112587e-05  2.2066657946330188e-05  1.8787542250061657e-05  1.9999066452699954e-05  1.9919693845729688e-05  1.5819502029307708e-05  1.5628405886161917e-05  1.9243814355561208e-05  1.9594336965474697e-05  2.1998220448680281e-05  2.0961362592630012e-05  1.7196588159988672e-05  2.0692958206829642e-05  1.5122744389209275e-05  1.6563724654841660e-05  1.8769427974532850e-05  1.6032889731028932e-05  1.9141480006852695e-05  2.1342975936057622e-05  2.1608062227345141e-05  1.9482441313798731e-05  2.0315518419428040e-05  1.6957051468155191e-05  2.1229487335305051e-05  1.8332747518404486e-05  2.0469066162862657e-05  1.7628433176546090e-05  1.7865031549008769e-05  1.6481694206706971e-05  1.8229347011242791e-05  2.0550265095305528e-05  3.0914729215543143e-05  2.5554839548371734e-05  2.3568422338248103e-05  1.7142025225734539e-05  2.6759379115957414e-05  2.8323264337697079e-05  2.1630978094196931e-05  2.7755361675196608e-05  2.8321579888418180e-05  1.7940897669497245e-05  1.9131395983010406e-05  1.9876027385865677e-05  1.8884562947557365e-05  1.9914576511103697e-05  2.0025053327360782e-05  2.0154263435931219e-05  2.2375883078345527e-05  4.8653169549459504e-06  2.6915182435201968e-05  5.9671912780057422e-06  6.0998472709576218e-06  4.5528982163524059e-06  5.5134889455897787e-06  3.2143274628275230e-06  2.6410255194814363e-05  4.4827657687051947e-06  2.1112651961067998e-05  2.1323505326257512e-05  3.2514305966578227e-06  2.2807956851007292e-05  2.3685549194891567e-05  2.4121395033445237e-05  2.5652018581019218e-05  7.3622886456275303e-06  7.1621297731455041e-06  6.0783776218423947e-06  5.0070495065669762e-06  5.9922260404860745e-06  7.9184621089092618e-06  5.3521623701007443e-06  5.1448719435231496e-06  7.3763984350104919e-06  6.3449871553233416e-06  5.4823060388961796e-06  6.5207386285530007e-06  2.0224660016130853e-06  3.5254623676376196e-06  2.9988448716919076e-06  4.3931328358664344e-06  2.8679119527543127e-06  1.9435066268738494e-06  3.0828135044770716e-06  4.6522352936122762e-06  1.9798611169907569e-05  1.9614280576189526e-05  2.0067688387520546e-05  1.8507174767521724e-05  1.8289878555716666e-05  1.8860402604937350e-05  1.6557161035516174e-05  1.6791167340205910e-05  1.4308861760563810e-05  1.4397971934643200e-05  1.6804536147840741e-05  1.4583120504859676e-05  1.7455764720695430e-05  1.4908477930164037e-05  1.7359861251031346e-05  1.5095636713342476e-05  1.7648444669381501e-05  1.4617024453533759e-05  1.7507541892651957e-05  1.4573658837636454e-05  1.6722719956460297e-05  1.9569687364095287e-05  1.8324938884866736e-05  2.1340454387578822e-05  1.9460485870461353e-05  1.3461038642575815e-05  2.2950825054590676e-05  2.0280905963694566e-05  1.6889916673224151e-05  1.2417293456946228e-05  2.3275057001181071e-05  2.0468569518015770e-05  2.3747035796611960e-05  2.0168134404252848e-05  2.3291778576940350e-05  1.9259502122178383e-05  2.1565033332619570e-05  1.9868905493593548e-05  1.1301092684029585e-05  1.0074531069161593e-05  1.4828705065752067e-05  1.1693463704807172e-05  2.2072273192750521e-05  1.1627216906038184e-05  1.7874535004706256e-05  2.0227646567598250e-05  1.6850322769546980e-05  1.5961215223359478e-05  1.7735441907186685e-05  1.3591528264991620e-05  1.5323690830686827e-05  1.8726196814614482e-05  1.6951121400790473e-05  1.2902237088958749e-05  1.4404019408983530e-05  1.7104997724416934e-05  1.4996405633446623e-05  1.2421404196245676e-05  1.2896120243521523e-05  1.0614943815983208e-05  1.1330482280846151e-05  1.3692550868304282e-05  1.1794343089956230e-05  1.3912930552322903e-05  1.2518227283340351e-05  1.0328958991886524e-05  1.0806257275709454e-05  1.2541370454712224e-05  1.0906183663749062e-05  1.2771670364346069e-05  8.8563501457621004e-06  1.0937990772373261e-05  1.3283795702405908e-05  1.0604419327044786e-05  1.2562066753946506e-05  1.4386232959631047e-05  9.0657797034010534e-06  2.5905827500928731e-05  9.7593142949819613e-06  1.1784002281863152e-05  1.4546689556526629e-05  1.3951096048645346e-05  1.7094382583827922e-05  1.6315680213209085e-05  1.2845142217041361e-05  1.5459683779502206e-05  1.8671545493008743e-05  1.8163048774718773e-05  7.8821176462979499e-06  1.0914520099447052e-05  1.6983626778119365e-05  8.5908281219445373e-06  2.5518328694852771e-05  1.7457576641495739e-05  2.1443129744494043e-05  1.9979157257435836e-05  2.3082543265527609e-05  2.2260247153533147e-05  1.8218241288950518e-05  1.9846807586813259e-05  2.3249311924985713e-05  2.0947015850699362e-05  2.3992094367064134e-05  2.1972542576811932e-05  1.8427266999447737e-05  1.8824906243723932e-05  2.1565641556171657e-05  1.8707911697167748e-05  2.0924981732925831e-05  1.8117038534381513e-05  1.9930432989174802e-05  1.7242406279510213e-05  1.8566582848590461e-05  1.5914107632424770e-05  1.6878574931927584e-05  1.4203156421209284e-05  1.2815025901753822e-05  1.5107231727805101e-05  1.1136599195078222e-05  1.9351388101515831e-05  1.7466769895326784e-05  1.4785836204153634e-05  1.5450068819121967e-05  1.2363477775586860e-05  2.2514060898823302e-05  1.2613352806713944e-05  1.5194713406371772e-05  1.2743828426370988e-05  1.5336212271483909e-05  1.2955828940234500e-05  1.9886950691157324e-05  1.2276629871026121e-05  1.5866852045511786e-05  1.3428836184150583e-05  9.7382422123698514e-06  1.6163564841669013e-05  1.4630896296459851e-05  1.7252250266923816e-05  1.5163180941465584e-05  1.8432268706431074e-05  1.5960641416857873e-05  1.9316126456370179e-05  1.6817851705815766e-05  2.0725794363895526e-05  1.7426841921560509e-05  2.0792774835826553e-05  1.7378425541081168e-05  2.0758387645108291e-05  1.7044900256601598e-05  2.0171057725020402e-05  2.3681523012352610e-05  2.2614689896295366e-05  1.8901592828416739e-05  2.0837729890659438e-05  1.6921755217515989e-05  1.8215508831845156e-05  2.1764541979754947e-05  1.8620918975477815e-05  2.1842555418650917e-05  1.8260493225672298e-05  2.1214334661420253e-05  2.4525650138299516e-05  1.4401948369579352e-05  1.7051677938775511e-05  2.0026902343202451e-05  2.3757731431999755e-05  2.2555271640395782e-05  1.8376653125401437e-05  2.0008953930028823e-05  1.6179011639459906e-05  1.8002727805009061e-05  1.1418875931178537e-05  2.5981516547465355e-05  1.2970099426645168e-05  2.6911539971038013e-05  9.1307310834163386e-06  1.0723531650119993e-05  2.3686521493158908e-05  8.2481727389595597e-06  1.3442035861703961e-05  1.1487453264772614e-05  1.5666501546544417e-05  2.1585825626407090e-05  1.5506487888698483e-05  1.5644784096502348e-05  1.5111775437223406e-05  1.4702216365389014e-05  1.3370399255424937e-05  1.9118411529200564e-05  1.1883872023466102e-05  1.6688604608360536e-05  2.8835881217015083e-05  2.9334220945837402e-05  2.7500039181555781e-05  1.7603469453408331e-05  2.5907585914224803e-05  2.6944201931613681e-05  1.3351822468439981e-05  2.3726413191048921e-05  1.4176382082579115e-05  1.9175731013970631e-05  1.9018044793136305e-05  1.7407787166096673e-05  1.6559559534192839e-05  8.0816810441318435e-06  6.5477199538734797e-06  2.1617911655678682e-05  2.1652668137548765e-05  2.0118466409256184e-05  1.1812762089962532e-05  1.1850901625574792e-05  1.6810245037849146e-05  1.5921061851875789e-05  2.1156286881809350e-05  1.9378918461592320e-05  1.8704016140060706e-05  1.8925778639243342e-05  2.0616164964333515e-05  1.9142730782587124e-05  2.1390090869721680e-05  2.1244829584923629e-05  2.5714944366041673e-05  2.6163711608045605e-05  2.4741558476515178e-05  8.4000546902335185e-06  1.9128564916042382e-05  1.7458908467737894e-05  2.3601318605495519e-05  2.5369628521472244e-05  1.8618439866419073e-05  1.6930130905097541e-05  1.3746022427642844e-05  3.0848010827541243e-05  2.9942485483893777e-05  9.5660246386718261e-06  1.3468270282610560e-05  1.0721324148680201e-05  9.0317083282063076e-06  8.8634702325782427e-06  6.5142790253378654e-06  7.4738077759554331e-06  9.3321367833900173e-06  1.9465873696554772e-05  2.8214387190308327e-05  2.9340645526191403e-05  2.7119064220256804e-05  2.8149703525503625e-05  3.0044264025938922e-05  2.4952923706309732e-05  2.6973140640531834e-05  1.7475955670213055e-05  1.8887717776148059e-05  2.1439408397558124e-05  2.3365165392500365e-05  1.8885858860760908e-05  1.9925881356202911e-05  1.9081995336160632e-05  6.6675696842002556e-06  2.0620101926002695e-05  2.0839528394878990e-05  2.1856000357581381e-05  2.0025467559990090e-05  1.1381535806995580e-05  2.2817959479136921e-05  2.2805688698982025e-05  2.4174657778221129e-05  2.3321361724833523e-05  8.3575138425777553e-06  2.1526504295646536e-05  2.3584322777936611e-05  2.6358690160102673e-05  2.1243296236172853e-05  2.1790029652509607e-05  2.3256890292382634e-05  1.8158734471397768e-05  1.7651274003550159e-05  1.7559992062833564e-05  1.6953196190809545e-05  3.0504922309928569e-05  2.6027131392956675e-05  2.7493116045275463e-05  2.7388644382972833e-05  2.4560401207241714e-05  2.4712158600378029e-05  2