<?xml version="1.0"?>
<VTKFile type="UnstructuredGrid"  version="0.1"  >
<UnstructuredGrid>
<Piece  NumberOfPoints="1183" NumberOfCells="2268">
<Points>
<DataArray  type="Float64"  NumberOfComponents="3"  format="ascii">0 0 0  0 1 0  1 1 0  1 0 0  1.1 -0.1 0  -0.1 -0.1 0  1.1 1.1 0  -0.1 1.1 0  0.5006693097591586 0.5005320983679102 0  0.2459084072683014 0.5452316684521487 0  0 0.9499999999997918 0  0 0.8999999999995836 0  0 0.8499999999996529 0  0 0.7999999999999998 0  0 0.7500000000003466 0  0 0.7000000000006934 0  0 0.6500000000010401 0  0 0.6000000000013869 0  0 0.5500000000017335 0  0 0.5000000000020587 0  0 0.4500000000018723 0  0 0.4000000000016644 0  0 0.3500000000014564 0  0 0.3000000000012483 0  0 0.2500000000010403 0  0 0.2000000000008322 0  0 0.1500000000006241 0  0 0.100000000000416 0  0 0.05000000000020799 0  0.04999999999989965 0 0  0.09999999999981467 0 0  0.1499999999997036 0 0  0.1999999999995579 0 0  0.2499999999994121 0 0  0.2999999999992664 0 0  0.3499999999991206 0 0  0.3999999999989749 0 0  0.4499999999988292 0 0  0.4999999999986943 0 0  0.5499999999988151 0 0  0.5999999999989468 0 0  0.6499999999990784 0 0  0.69999999999921 0 0  0.7499999999993417 0 0  0.7999999999994734 0 0  0.8499999999996051 0 0  0.8999999999997368 0 0  0.9499999999998684 0 0  1 0.04999999999989965 0  1 0.09999999999981467 0  1 0.1499999999997036 0  1 0.1999999999995579 0  1 0.2499999999994121 0  1 0.2999999999992664 0  1 0.3499999999991206 0  1 0.3999999999989749 0  1 0.4499999999988292 0  1 0.4999999999986943 0  1 0.5499999999988151 0  1 0.5999999999989468 0  1 0.6499999999990784 0  1 0.69999999999921 0  1 0.7499999999993417 0  1 0.7999999999994734 0  1 0.8499999999996051 0  1 0.8999999999997368 0  1 0.9499999999998684 0  0.9499999999997918 1 0  0.8999999999995836 1 0  0.8499999999996529 1 0  0.7999999999999998 1 0  0.7500000000003466 1 0  0.7000000000006934 1 0  0.6500000000010401 1 0  0.6000000000013869 1 0  0.5500000000017335 1 0  0.5000000000020587 1 0  0.4500000000018723 1 0  0.4000000000016644 1 0  0.3500000000014564 1 0  0.3000000000012483 1 0  0.2500000000010403 1 0  0.2000000000008322 1 0  0.1500000000006241 1 0  0.100000000000416 1 0  0.05000000000020799 1 0  -0.1 1.05000000000004 0  -0.1 1.000000000000079 0  -0.1 0.9500000000001624 0  -0.1 0.9000000000003032 0  -0.1 0.850000000000444 0  -0.1 0.8000000000005848 0  -0.1 0.7500000000007256 0  -0.1 0.7000000000008665 0  -0.1 0.6500000000010508 0  -0.1 0.6000000000012352 0  -0.1 0.5500000000014196 0  -0.1 0.500000000001539 0  -0.1 0.4500000000014195 0  -0.1 0.4000000000013 0  -0.1 0.3500000000011588 0  -0.1 0.3000000000010178 0  -0.1 0.2500000000008986 0  -0.1 0.2000000000007579 0  -0.1 0.1500000000006174 0  -0.1 0.1000000000005272 0  -0.1 0.05000000000040083 0  -0.1 2.671196597248127e-13 0  -0.1 -0.0499999999998666 0  -0.0500000000000906 -0.1 0  -1.730560139634463e-13 -0.1 0  0.04999999999975802 -0.1 0  0.09999999999961506 -0.1 0  0.1499999999994613 -0.1 0  0.199999999999302 -0.1 0  0.2499999999991446 -0.1 0  0.2999999999990088 -0.1 0  0.3499999999988296 -0.1 0  0.3999999999986936 -0.1 0  0.4499999999985143 -0.1 0  0.4999999999984002 -0.1 0  0.5499999999985247 -0.1 0  0.5999999999986493 -0.1 0  0.6499999999987955 -0.1 0  0.6999999999989417 -0.1 0  0.7499999999990659 -0.1 0  0.7999999999992116 -0.1 0  0.8499999999993573 -0.1 0  0.8999999999994526 -0.1 0  0.949999999999584 -0.1 0  0.9999999999997226 -0.1 0  1.049999999999861 -0.1 0  1.1 -0.0500000000000906 0  1.1 -1.730560139634463e-13 0  1.1 0.04999999999975802 0  1.1 0.09999999999961506 0  1.1 0.1499999999994613 0  1.1 0.199999999999302 0  1.1 0.2499999999991446 0  1.1 0.2999999999990088 0  1.1 0.3499999999988296 0  1.1 0.3999999999986936 0  1.1 0.4499999999985143 0  1.1 0.4999999999984002 0  1.1 0.5499999999985247 0  1.1 0.5999999999986493 0  1.1 0.6499999999987955 0  1.1 0.6999999999989417 0  1.1 0.7499999999990659 0  1.1 0.7999999999992116 0  1.1 0.8499999999993573 0  1.1 0.8999999999994526 0  1.1 0.949999999999584 0  1.1 0.9999999999997226 0  1.1 1.049999999999861 0  1.05000000000004 1.1 0  1.000000000000079 1.1 0  0.9500000000001624 1.1 0  0.9000000000003032 1.1 0  0.850000000000444 1.1 0  0.8000000000005848 1.1 0  0.7500000000007256 1.1 0  0.7000000000008665 1.1 0  0.6500000000010508 1.1 0  0.6000000000012352 1.1 0  0.5500000000014196 1.1 0  0.500000000001539 1.1 0  0.4500000000014195 1.1 0  0.4000000000013 1.1 0  0.3500000000011588 1.1 0  0.3000000000010178 1.1 0  0.2500000000008986 1.1 0  0.2000000000007579 1.1 0  0.1500000000006174 1.1 0  0.1000000000005272 1.1 0  0.05000000000040083 1.1 0  2.671196597248127e-13 1.1 0  -0.0499999999998666 1.1 0  0.2532319287908888 0.5734540938174085 0  0.2653911287837244 0.5997847142574587 0  0.280811817969162 0.6243343288560004 0  0.2998400873241961 0.646087941950741 0  0.3220042131339876 0.6644552698330156 0  0.345458293120004 0.6810075104740515 0  0.369904859697642 0.6960552970105268 0  0.3955916267727512 0.7089149726939291 0  0.4223083702632311 0.7194513759817427 0  0.449847375943265 0.727712486642676 0  0.4780131417192065 0.7334979662260995 0  0.5065041160380112 0.7371946921780018 0  0.5353115967838132 0.7386579762078056 0  0.564150543644623 0.7358769790567545 0  0.5920593255326789 0.7280545941482091 0  0.6187321552268366 0.7166158116332024 0  0.6436109413535617 0.7017977433543542 0  0.6661936115410504 0.6836403703209188 0  0.6863603040175446 0.6628634571507969 0  0.7037434732651258 0.6397666836605449 0  0.7177845280558703 0.6144295891029141 0  0.7285047765106025 0.587505297322311 0  0.7357753927491864 0.5594917107333384 0  0.7385224047314343 0.5306658223698204 0  0.7370972717132879 0.5018478318628632 0  0.7331601899682137 0.4732896284980296 0  0.7267787836158008 0.4452618694359371 0  0.7178312345854608 0.4179497134383306 0  0.7068685896816485 0.3914052249273237 0  0.6939533226461924 0.3657546807095545 0  0.6788250315464386 0.3413482199030578 0  0.6619291810961236 0.3181509782022602 0  0.6430973482563465 0.2963391263179371 0  0.6209479055157683 0.2777497101141553 0  0.5959918436609587 0.2629661847218857 0  0.5692733986542281 0.2516185225108676 0  0.5409014435476196 0.2449276680039915 0  0.5118401208877122 0.2458130138996278 0  0.4837294104317841 0.2525222988282045 0  0.4564529730177849 0.2617397635793043 0  0.4301055000180543 0.2733142954259707 0  0.4052679570833915 0.2875908283470291 0  0.3814336812073181 0.3034978849588214 0  0.3588736609119272 0.3211903107410014 0  0.3378448319986406 0.3406899130783413 0  0.3185477200957762 0.3618490634151898 0  0.3010054626378161 0.3845289950064741 0  0.2854165174380859 0.4086056929154555 0  0.2716369605071879 0.4337817661458371 0  0.2606547404868655 0.4603534305624878 0  0.2521689439773072 0.4878937264880924 0  0.2462218917972974 0.5161292974789832 0  0.2700326053597004 0.507293827354707 0  0.3255239467733737 0.6368458287945258 0  0.502568092615848 0.2750979612856715 0  0.6351226290278645 0.3219977587850453 0  0.393329952780151 0.6811348719912872 0  0.6798635929734914 0.3898119145857672 0  0.7054207078504868 0.4649716695167946 0  0.7084757077688338 0.5702567249852434 0  0.6556001149394054 0.6587260649217462 0  0.5766173394430031 0.7099044738113519 0  0.4691006064473157 0.7059359857888177 0  0.4306641680904091 0.3020793140747522 0  0.3640602220665761 0.3485764543708611 0  0.3137261617085181 0.4085786063434801 0  0.5738076606783346 0.2791951528927236 0  0.2809990030342375 0.5762772294607023 0  0.2885760636740356 0.4554420942655382 0  0.6895972873153142 0.6119689947401455 0  0.6169764239275054 0.6878398667413611 0  0.7130095670594517 0.5183740776571731 0  0.5218131362213387 0.7136829459660069 0  0.4062506720242698 0.3161349144564467 0  0.4309480647386384 0.3305305238328719 0  0.4564193725450645 0.3150098210660419 0  0.4581015824623451 0.344278173107302 0  0.4303890548339299 0.3596139432571446 0  0.4578172653697537 0.370564008869276 0  0.434208932204031 0.3959015761735243 0  0.4852306655596387 0.3600335990975227 0  0.4847908425940218 0.3995567414228333 0  0.5246709177307055 0.3685342145936928 0  0.4494340108947513 0.4332917267105559 0  0.4115105837046862 0.4370083332866812 0  0.5207800276918554 0.3324467656196247 0  0.5588377969916738 0.3575532395997528 0  0.5745065875291299 0.3886878210491347 0  0.5541000322812832 0.3177687181524175 0  0.4389947810280162 0.4801126713608959 0  0.3700491231293779 0.4744395105454293 0  0.3980644817512273 0.5226617679800555 0  0.3491109692288016 0.5189419507899757 0  0.3652348307699343 0.5670548809247449 0  0.4143386149770323 0.5685711006044293 0  0.391477406538512 0.603959755095466 0  0.4313031741317365 0.614769930388921 0  0.460613912059082 0.5765299362023333 0  0.4686694518651187 0.6196710398902134 0  0.5069361987055606 0.5909347592133926 0  0.5270487833665202 0.6231128774885579 0  0.5573635363084375 0.5986028417462961 0  0.581955854566118 0.6327674289333626 0  0.6014589103378398 0.603448067553046 0  0.5952475577917761 0.5624809739459733 0  0.6291101755206439 0.5632375256563174 0  0.6249331868293114 0.5230443847712861 0  0.5482052133535665 0.6663988567687813 0  0.6144128277836677 0.6336767655486857 0  0.4453570566686861 0.6522861281319886 0  0.4899324046611798 0.6669201227275292 0  0.6035173931958009 0.3666150999480724 0  0.6038726622472179 0.4092417012812169 0  0.5836253754645196 0.4369818075458921 0  0.6296275155852631 0.3793789678873549 0  0.5927060105073539 0.335115975109964 0  0.5801225930221497 0.513497234323232 0  0.6210534419081382 0.451562503494252 0  0.6456384991360309 0.4324014887928545 0  0.6543086575003406 0.4610407316710215 0  0.6735689912435145 0.4359637869150314 0  0.4021255460719082 0.37347328757454 0  0.4051430975051579 0.6360095937658908 0  0.3729839746850461 0.636464243913146 0  0.3586459349714244 0.6074701239811628 0  0.3334086045823075 0.5751011475171511 0  0.6659426540409192 0.5351494468420458 0  0.6690458396011685 0.5691146688979125 0  0.6380176281436886 0.6110662007592543 0  0.5955433835036056 0.6636105253285751 0  0.3302272335743582 0.4771302437652836 0  0.35268569335
[...]
<PointData  Scalars="v"> 
<DataArray  type="Float64"  Name="v"  format="ascii">0.0000000000000000e+00  0.0000000000000000e+00  0.0000000000000000e+00  0.0000000000000000e+00  0.0000000000000000e+00  0.0000000000000000e+00  0.0000000000000000e+00  0.0000000000000000e+00  4.4763363894475481e-04  3.8527058183628098e-04  0.0000000000000000e+00  0.0000000000000000e+00  0.0000000000000000e+00  0.0000000000000000e+00  0.0000000000000000e+00  0.0000000000000000e+00  0.0000000000000000e+00  0.0000000000000000e+00  0.0000000000000000e+00  0.0000000000000000e+00  0.0000000000000000e+00  0.0000000000000000e+00  0.0000000000000000e+00  0.0000000000000000e+00  0.0000000000000000e+00  0.0000000000000000e+00  0.0000000000000000e+00  0.0000000000000000e+00  0.0000000000000000e+00  0.0000000000000000e+00  0.0000000000000000e+00  0.0000000000000000e+00  0.0000000000000000e+00  0.0000000000000000e+00  0.0000000000000000e+00  0.0000000000000000e+00  0.0000000000000000e+00  0.0000000000000000e+00  0.0000000000000000e+00  0.0000000000000000e+00  0.0000000000000000e+00  0.0000000000000000e+00  0.0000000000000000e+00  0.0000000000000000e+00  0.0000000000000000e+00  0.0000000000000000e+00  0.0000000000000000e+00  0.0000000000000000e+00  0.0000000000000000e+00  0.0000000000000000e+00  0.0000000000000000e+00  0.0000000000000000e+00  0.0000000000000000e+00  0.0000000000000000e+00  0.0000000000000000e+00  0.0000000000000000e+00  0.0000000000000000e+00  0.0000000000000000e+00  0.0000000000000000e+00  0.0000000000000000e+00  0.0000000000000000e+00  0.0000000000000000e+00  0.0000000000000000e+00  0.0000000000000000e+00  0.0000000000000000e+00  0.0000000000000000e+00  0.0000000000000000e+00  0.0000000000000000e+00  0.0000000000000000e+00  0.0000000000000000e+00  0.0000000000000000e+00  0.0000000000000000e+00  0.0000000000000000e+00  0.0000000000000000e+00  0.0000000000000000e+00  0.0000000000000000e+00  0.0000000000000000e+00  0.0000000000000000e+00  0.0000000000000000e+00  0.0000000000000000e+00  0.0000000000000000e+00  0.0000000000000000e+00  0.0000000000000000e+00  0.0000000000000000e+00  0.0000000000000000e+00  0.0000000000000000e+00  0.0000000000000000e+00  0.0000000000000000e+00  0.0000000000000000e+00  0.0000000000000000e+00  0.0000000000000000e+00  0.0000000000000000e+00  0.0000000000000000e+00  0.0000000000000000e+00  0.0000000000000000e+00  0.0000000000000000e+00  0.0000000000000000e+00  0.0000000000000000e+00  0.0000000000000000e+00  0.0000000000000000e+00  0.0000000000000000e+00  0.0000000000000000e+00  0.0000000000000000e+00  0.0000000000000000e+00  0.0000000000000000e+00  0.0000000000000000e+00  0.0000000000000000e+00  0.0000000000000000e+00  0.0000000000000000e+00  0.0000000000000000e+00  0.0000000000000000e+00  0.0000000000000000e+00  0.0000000000000000e+00  0.0000000000000000e+00  0.0000000000000000e+00  0.0000000000000000e+00  0.0000000000000000e+00  0.0000000000000000e+00  0.0000000000000000e+00  0.0000000000000000e+00  0.0000000000000000e+00  0.0000000000000000e+00  0.0000000000000000e+00  0.0000000000000000e+00  0.0000000000000000e+00  0.0000000000000000e+00  0.0000000000000000e+00  0.0000000000000000e+00  0.0000000000000000e+00  0.0000000000000000e+00  0.0000000000000000e+00  0.0000000000000000e+00  0.0000000000000000e+00  0.0000000000000000e+00  0.0000000000000000e+00  0.0000000000000000e+00  0.0000000000000000e+00  0.0000000000000000e+00  0.0000000000000000e+00  0.0000000000000000e+00  0.0000000000000000e+00  0.0000000000000000e+00  0.0000000000000000e+00  0.0000000000000000e+00  0.0000000000000000e+00  0.0000000000000000e+00  0.0000000000000000e+00  0.0000000000000000e+00  0.0000000000000000e+00  0.0000000000000000e+00  0.0000000000000000e+00  0.0000000000000000e+00  0.0000000000000000e+00  0.0000000000000000e+00  0.0000000000000000e+00  0.0000000000000000e+00  0.0000000000000000e+00  0.0000000000000000e+00  0.0000000000000000e+00  0.0000000000000000e+00  0.0000000000000000e+00  0.0000000000000000e+00  0.0000000000000000e+00  0.0000000000000000e+00  0.0000000000000000e+00  0.0000000000000000e+00  0.0000000000000000e+00  0.0000000000000000e+00  0.0000000000000000e+00  0.0000000000000000e+00  0.0000000000000000e+00  0.0000000000000000e+00  0.0000000000000000e+00  0.0000000000000000e+00  0.0000000000000000e+00  0.0000000000000000e+00  0.0000000000000000e+00  0.0000000000000000e+00  3.8300928749930818e-04  3.8734222246797979e-04  3.9483861862948569e-04  4.0269758858750879e-04  4.1019992183369546e-04  4.1730415036481599e-04  4.2270647952688409e-04  4.2565117651115886e-04  4.2687730242165552e-04  4.2498429588913638e-04  4.2210384325223459e-04  4.1741803475131182e-04  4.1257797023492606e-04  4.0861386318944993e-04  4.0717746207670339e-04  4.0445390126511423e-04  4.0376461875534859e-04  4.0365407233629563e-04  4.0162216057794273e-04  4.0237750814292529e-04  4.0561026003856716e-04  4.0820557366500864e-04  4.1025003311950282e-04  4.1346755834258109e-04  4.1900692942121716e-04  4.2038182072642790e-04  4.2434497756803829e-04  4.2495791345784962e-04  4.2418989982681484e-04  4.2085288053660857e-04  4.1523912851897349e-04  4.0764556456875128e-04  3.9968593889912028e-04  3.9259186483288854e-04  3.8353288109154306e-04  3.8164038989499296e-04  3.8351414608381475e-04  3.9115751802364264e-04  4.0116029033870757e-04  4.1597522421738214e-04  4.2650544482257589e-04  4.3842633447409751e-04  4.4678709813807186e-04  4.5241695941587414e-04  4.5462539871964281e-04  4.5308281900332176e-04  4.4635763362759829e-04  4.3787802285492704e-04  4.2645051090213151e-04  4.1392536995685410e-04  4.0231938270715183e-04  3.9257784469145461e-04  3.5774472885614645e-04  3.6303881342727821e-04  3.5475495283949083e-04  3.6098702650081771e-04  3.7793632470728655e-04  3.7692850753562237e-04  3.7675111332023426e-04  3.6577408087999229e-04  3.6151863205598005e-04  3.6568458945069162e-04  3.7731067659943734e-04  3.8361402546251285e-04  3.9991773683677867e-04  3.9164773254109811e-04  3.4658224998189424e-04  3.4826994590570084e-04  3.7562452480054880e-04  3.6244411450408082e-04  3.6021753074528016e-04  3.7149094464470440e-04  3.7105424038899517e-04  3.9207409528970913e-04  3.9322490324230670e-04  3.8421712120515888e-04  4.0462353786427201e-04  4.1082641642884723e-04  4.1980569180275352e-04  4.2805826228645621e-04  4.1438319224242672e-04  4.3125370540550548e-04  4.1421787487837670e-04  4.3847415587355208e-04  4.3244732564339032e-04  3.9309724967190475e-04  4.0140116613796999e-04  4.1339318813776071e-04  3.7355100339850838e-04  4.4200136809640961e-04  4.2049791896229703e-04  4.2732159247567609e-04  4.0534606196487540e-04  4.0454222508879979e-04  4.2442142448982699e-04  4.0536030845634272e-04  4.1551900326681113e-04  4.3330442281105637e-04  4.2024090413761450e-04  4.3126115113731068e-04  4.1778590509770718e-04  4.2201693428950957e-04  4.0150337027258982e-04  4.0768111208410140e-04  4.2200415164251909e-04  4.0851984110741655e-04  4.1789869745396865e-04  3.8968475713196753e-04  3.8683370570519789e-04  3.9958222488555164e-04  3.9535331353170584e-04  3.9149811556347415e-04  4.1196915328502469e-04  4.2657428742988907e-04  3.8651020692191733e-04  3.7468655714354505e-04  4.3374188400694948e-04  4.1683872138582602e-04  3.9944506783330550e-04  4.0071065691111549e-04  3.8388896126070995e-04  4.1110788375472198e-04  3.9582504940505707e-04  3.8013230740733520e-04  3.8545962430061690e-04  3.8030730266452672e-04  3.9284770240427324e-04  3.8246795992266820e-04  3.8566028167165916e-04  3.7674355770940201e-04  3.9535448976249775e-04  4.0802505389386117e-04  3.7910215429572927e-04  4.1182154201236016e-04  3.8453735738106377e-04  3.9191778480432974e-04  3.7114834799225916e-04  3.7215051756124540e-04  3.5486337607293741e-04  3.6571032212312146e-04  3.8611889967447551e-04  3.9784427995310839e-04  4.0278599293928067e-04  3.8207141250106715e-04  3.8691039997769454e-04  4.3338293176013617e-04  4.4059623365811821e-04  3.7499229980604218e-04  3.8077130946080569e-04  3.6987378471944567e-04  3.7885062106078279e-04  3.7476417014506045e-04  3.6799722531125604e-04  3.7114807321803137e-04  4.0007969070492600e-04  4.0296867311718999e-04  3.7390566248256116e-04  3.9730489487228295e-04  3.9724214651387017e-04  3.7341149505763202e-04  3.7955776852588332e-04  3.8471330241001290e-04  3.8026617609463668e-04  4.2250074413821532e-04  3.6656966564362498e-04  3.7482662710994408e-04  4.4020559943325037e-04  3.7029105798993216e-04  3.6640667750008777e-04  3.6582726291984192e-04  3.5895444896097894e-04  3.7531827948436650e-04  3.7748634481271805e-04  3.7882147521144647e-04  3.7613314369876096e-04  3.5239312155912995e-04  3.5068756624044741e-04  3.6030311600031067e-04  3.7190599384046176e-04  3.6814946222761026e-04  3.8454335196123278e-04  3.9760046076192873e-04  3.7318262727392703e-04  3.6850870789719781e-04  3.6076292916121773e-04  3.5784834677347242e-04  3.4757547765870261e-04  3.5742380790648845e-04  4.1618323365938664e-04  3.6045231864498300e-04  3.6848974155396559e-04  3.6010842424688170e-04  3.4654751007553568e-04  4.4215208384789685e-04  3.8094787751970666e-04  3.9955812386720772e-04  3.8306709464669430e-04  3.8336985252722893e-04  3.8954736301276841e-04  4.0589133508730065e-04  4.0018372271794823e-04  3.7106124101286592e-04  3.8026528186515998e-04  3.7039433170674401e-04  3.8956811529776398e-04  3.7278855075910714e-04  3.5284692732230323e-04  3.6585609173905831e-04  3.8277525401837726e-04  3.5577091393005988e-04  3.7895199512891307e-04  4.2940729863902896e-04  3.7640066440531607e-04  3.9028720209444850e-04  3.6943387639130486e-04  3.7339729430189853e-04  3.7311139653656956e-04  3.9968722563908323e-04  3.5425304190911979e-04  3.9678565878477681e-04  3.6490119515012430e-04  4.4432209855741644e-04  4.1434355939023949e-04  3.9314247871377107e-04  4.2067414474246623e-04  4.4213442692445234e-04  3.5937552743848844e-04  3.9302799004223754e-04  4.1250407481426742e-04  3.9957445157194182e-04  4.0017202028922897e-04  3.7334854107485291e-04  3.7028398502463722e-04  3.8245379112128935e-04  4.0053727478515363e-04  3.9861367741690575e-04  3.9157255580515979e-04  3.9713930792505418e-04  4.0491507263298794e-04  4.0332389463668009e-04  3.8454138736521691e-04  4.0907687628825948e-04  4.0481311713068082e-04  4.4594925974338203e-04  5.0188992664795600e-04  4.4237461487964746e-04  4.3998682995620702e-04  4.8896296943816300e-04  4.2064501241598039e-04  4.6552000469775897e-04  4.6691682221138361e-04  4.2408617318456831e-04  4.8027495950395843e-04  4.1379853516888121e-04  4.1186478587553306e-04  4.3974212376020474e-04  4.4657758111231981e-04  4.4344914661947291e-04  6.2963862097467104e-05  4.4879813781578443e-04  4.6684227537112160e-04  4.6495556066999342e-04  5.7151381132913812e-05  5.9719490551239802e-05  4.4526902036504665e-04  5.2319725104209598e-05  5.0797573053969168e-05  5.5449903264713050e-05  5.5680047856318520e-05  4.3186561902336601e-04  7.2272161701902616e-05  7.9887083660159491e-05  7.8719277160277791e-05  7.7251634722288546e-05  7.5093886563107223e-05  6.8981745020678324e-05  6.8598541035288913e-05  8.2256397285734712e-05  7.2336650575157419e-05  7.9868589300311242e-05  6.8379026105388241e-05  8.8243461470295274e-05  8.1508231463919340e-05  5.1689910500932793e-05  3.2960632553108766e-05  3.4593160592045134e-05  3.4360162759828899e-05  3.9376671759222999e-05  3.4172747921344511e-05  3.9737443488637906e-05  3.2179417815324755e-05  2.8145492070578304e-05  4.1747074304491805e-04  4.0474107570043921e-04  4.0801964761093322e-04  3.7628883730203696e-04  3.7420275573355887e-04  3.7614253574089538e-04  3.3719386867259361e-04  3.3862551613475289e-04  2.9154176232545431e-04  2.9238018720107969e-04  3.4001743262272125e-04  2.9275039285909659e-04  3.3683074224916988e-04  2.8967761331692753e-04  3.2991518934974580e-04  2.8227340879473291e-04  3.1883896124336740e-04  2.6816652365841429e-04  3.0032436472140345e-04  2.4792880294463360e-04  2.7338331675221623e-04  3.2663325869806595e-04  2.9314182853143955e-04  2.4078576429815860e-04  2.1972732391646770e-04  1.9444055844324419e-04  3.4479836703785719e-04  3.0666230235393727e-04  2.5098561389289795e-04  3.5538503761531641e-04  3.1342767219039018e-04  3.7241068476758004e-04  3.1419666826576823e-04  3.6203074651800947e-04  3.1017126853419264e-04  3.5509037921350220e-04  2.9856691432725941e-04  3.3855764990151435e-04  1.6760570603687280e-04  2.7901232014031316e-04  3.2143349559362493e-04  2.5801809911391363e-04  2.9964436726122567e-04  2.2919692268662248e-04  2.6414039157646841e-04  3.7969077380955822e-04  2.4350101652192814e-04  1.4127867027182957e-04  1.6304882267938916e-04  2.9261385391691363e-04  2.3929900367393236e-04  2.3828467909175173e-04  2.3346465962993543e-04  2.7384193891937100e-04  3.3454155177357837e-04  3.0683562928338992e-04  2.4731083809202930e-04  2.7795065190253988e-04  2.1816269034786065e-04  2.4690279735598594e-04  3.0273590535816728e-04  2.6775847890579696e-04  3.1947983601761821e-04  2.8028690340017751e-04  2.2965634653498716e-04  2.3776684239417396e-04  2.9287159997784615e-04  2.3837133381554844e-04  2.8010948175363938e-04  2.2597461969170584e-04  2.6698193939156043e-04  1.8976016942303170e-04  3.2010467850108727e-04  3.0491436552728790e-04  2.0553550890805851e-04  1.8797624984787927e-04  3.6194242382130625e-04  3.6985078078368046e-04  1.8765429351262297e-04  3.6354917576566251e-04  3.3844798943057981e-04  2.8385543560353400e-04  3.1605221449402507e-04  2.5466678511049416e-04  2.8613991171652799e-04  2.1858818170686860e-04  2.5054561600520130e-04  3.1384742585382770e-04  2.7792315274245211e-04  3.4953191200298212e-04  3.0314418737839409e-04  3.6458520702419944e-04  3.2225066904724068e-04  3.8599102600574500e-04  3.3644486076803533e-04  3.8848793425886810e-04  3.4221175955911274e-04  2.8849228096693565e-04  2.9670582574609783e-04  3.4258386139092271e-04  2.9572389105260991e-04  3.3643928656119367e-04  2.8764698207222808e-04  3.2380427245864437e-04  2.7260205923950587e-04  3.0370505644993141e-04  2.5183292310992602e-04  2.7582760919586788e-04  2.2100656613007667e-04  2.4922139988050327e-04  3.2637071404993358e-04  2.9506563210513154e-04  2.4141744582368462e-04  2.5584907341295225e-04  1.9895337173797721e-04  1.7050076210966151e-04  1.9941388480575409e-04  3.0983328819662181e-04  2.6750869429263978e-04  2.6564837368891250e-04  1.8538932080468698e-04  3.7026371538116188e-04  3.7815091931248985e-04  3.2799288276009531e-04  2.7635193482986064e-04  3.2951416923348778e-04  2.8094485662520159e-04  3.3905775987705839e-04  2.8186434923142248e-04  3.3671457458212727e-04  2.8010946840410197e-04  3.4594835222755469e-04  2.8080111335136292e-04  3.3481927151534654e-04  2.7477003331219933e-04  3.2172239918005347e-04  2.6384288827689130e-04  3.0771632376797904e-04  2.4810396574767091e-04  2.9219181536853416e-04  3.5751393847080205e-04  3.2803553390005753e-04  2.6718473580367039e-04  2.9684059375895198e-04  3.5556747493453288e-04  3.1747328733892769e-04  2.6085987992980345e-04  2.7320350793933205e-04  3.2730702156256504e-04  2.7703585225541513e-04  3.2660045500655757e-04  2.1876986476177638e-04  3.7719011495800201e-04  3.7272602828264639e-04  3.1721569809663603e-04  3.5984238916064108e-04  3.0054663043631996e-04  2.5670474299248510e-04  3.3885905266226187e-04  2.7716134002868533e-04  2.0328991294035328e-04  1.6598153814527045e-04  4.0037193352413165e-04  3.1638186385422564e-04  2.4652239182557735e-04  4.2247418432559005e-04  3.8606320792740394e-04  4.0831604520930178e-04  2.2228306543071373e-04  4.1391197594041809e-04  3.7308433460879503e-04  1.3676245802965309e-04  1.5098957227022502e-04  4.2339895739523261e-04  3.6334293816671289e-04  3.6841662664581764e-04  2.1639865591012501e-04  4.0552912397499760e-04  2.0080595396471064e-04  1.7117085475619568e-04  3.7942797494955766e-04  4.6735580353323265e-04  4.6169810463224788e-04  1.7852197243420275e-04  4.0665830973500789e-04  1.1815307705861365e-04  1.8579813923039730e-04  1.1434490047573231e-04  3.9033995939535810e-04  3.5713668700067735e-04  1.4638891763581638e-04  1.1533882924566875e-04  1.7753333065118954e-04  1.8326497883294310e-04  1.7797219013707038e-04  1.4187990167343503e-04  1.4894692346402533e-04  1.0619074240920978e-04  1.0620149011127128e-04  4.0735922038924319e-04  1.8598241209379329e-04  1.4281148500325242e-04  1.5530393469551679e-04  2.0857144551265287e-04  4.1353928772239272e-04  1.4461253734062088e-04  4.3053163469023738e-04  4.3205711396651739e-04  4.6159025727573815e-04  4.3574129219588539e-04  2.0388925081989454e-04  1.7204542708282197e-04  3.8284293201145200e-04  3.7006483383399217e-04  4.0078426036477152e-04  4.6044769768621864e-04  4.9339560792738919e-04  1.5422628753272965e-04  9.4533894608248237e-05  4.0937341459866192e-04  4.3453586433326105e-04  3.7554345383356528e-04  4.2989568195430473e-04  1.2742871093132454e-04  1.3500947145961279e-04  3.7820533406654195e-04  1.3105355703773813e-04  2.7025498577147876e-04  4.9227364501977045e-04  4.8541065525982500e-04  4.5382966476349072e-04  4.7674610311770172e-04  4.4042565741361642e-04  4.6319844076691120e-04  4.9230200130149094e-04  4.1501117651074744e-04  9.2569298911473970e-05  9.2364192084692484e-05  4.0953801088927292e-04  4.2906216860452657e-04  4.1425398447372509e-04  1.8282346837793004e-04  1.8456469144536900e-04  1.9427464465278385e-04  1.2802596194989334e-04  1.7826905404786229e-04  1.3144163355103934e-04  1.9323311376959635e-04  1.6493946441481391e-04  1.9492816808824133e-04  1.4905176390400617e-04  4.3395426729347659e-04  4.3112211469419315e-04  4.4123061530490103e-04  4.1816140646211365e-04  4.1142008808498518e-04  4.3534346553842962e-04  4.2472930435432553e-04  4.3534538633939164e-04  4.4594267870376355e-04  1.1543669058574272e-04  4.0108050437918707e-04  4.0163329153200907e-04  1.5129596426304549e-04  4.1699713045271537e-04  1.0257036531431028e-04  4.5379480101872556e-04  4.5425824400676062e-04  4.4193652208609710e-04  4.3870329749562929e-04  4.0540151978724526e-04  4.4390268288757335e-04  7.2358772515295644e-05  4.5951780584991674e-04  4.3129234387766257e-04  4.7988011503346590e-04  4.4324698992324782e-04  4.6093351599763840e-04  4.6386655903162476e-04  3.8472363285346230e-04  9.0346649793041672e-05  1.3943277502687069e-04  3.8468408768329600e-04  3.7432374308212044e-04  4.3963896018004925e-04  4.4619963334848535e-04  4.3411411099474197e-04  4.1570673870180080e-04  3.9887116666947718e-04  5.0637129989378833e-04  4.2043330651759755e-04  4.1590404371349678e-04  3.9734546324382742e-04  4.1629951624898385e-04  4.4716321880678344e-04  4.3498392921262487e-04  4.0826069710399543e-04  4.5200384748684072e-04  4.6136973014135465e-04  4.4785132358726243e-04  4.6102468634041276e-04  4.2724371519460938e-04  3.6363939678767441e-04  4.7544420708802446e-04  4.7534398832686011e-04  3.5089508072061091e-04  4.6776993008527761e-04  4.6008471426545319e-04  4.5456007927158790e-04  4.6340677796117115e-04  4.3026583407841922e-04  4.2388248400523790e-04  4.6086360397715735e-04  4.5784883812190224e-04  4.5201354966215636e-04  4.1749159537976662e-04  4.3371065197934082e-04  4.3089575590159212e-04  4.6299568670746168e-04  4.6040516405787953e-04  4.6253716255958657e-04  4.3475125162928554e-04  4.5315171752315515e-04  4.2176336542786242e-04  4.3232046437325424e-04  4.4546336727152623e-04  4.3140167050176824e-04  4.7019864749215469e-04  3.4984214892658927e-04  1.0332318948727040e-04  3.7903172859532795e-04  3.7909080422773991e-04  4.6103680335438644e-04  4.4184422890397411e-04  4.6262158486788527e-04  4.1374878964594626e-04  8.2544164349310150e-05  1.2893328215381935e-04  3.8833005810022699e-04  8.0260179925464753e-05  1.4965573620708914e-04  1.5528752955084999e-04  9.1721235525792064e-05  1.4728786495062343e-04  1.5046814702057416e-04  1.5519229015035596e-04  3.3232384356710921e-04  4.3491361553759148e-04  3.7544685741312914e-04  3.4960720251750612e-04  4.0727171119080569e-04  8.1004287548660324e-05  1.4728122173372212e-04  1.4318923904139334e-04  2.1879759826138489e-04  7.4427436736211497e-05  7.1589633654742699e-05  2.0055297734806226e-04  1.5311718501252947e-04  1.6209400731614836e-04  4