<?xml version="1.0"?>
<VTKFile type="UnstructuredGrid"  version="0.1"  >
<UnstructuredGrid>
<Piece  NumberOfPoints="1183" NumberOfCells="2268">
<Points>
<DataArray  type="Float64"  NumberOfComponents="3"  format="ascii">0 0 0  0 1 0  1 1 0  1 0 0  1.1 -0.1 0  -0.1 -0.1 0  1.1 1.1 0  -0.1 1.1 0  0.5002199693278312 0.500170653161927 0  0.2390686721234277 0.5459734885467541 0  0 0.9499999999997918 0  0 0.8999999999995836 0  0 0.8499999999996529 0  0 0.7999999999999998 0  0 0.7500000000003466 0  0 0.7000000000006934 0  0 0.6500000000010401 0  0 0.6000000000013869 0  0 0.5500000000017335 0  0 0.5000000000020587 0  0 0.4500000000018723 0  0 0.4000000000016644 0  0 0.3500000000014564 0  0 0.3000000000012483 0  0 0.2500000000010403 0  0 0.2000000000008322 0  0 0.1500000000006241 0  0 0.100000000000416 0  0 0.05000000000020799 0  0.04999999999989965 0 0  0.09999999999981467 0 0  0.1499999999997036 0 0  0.1999999999995579 0 0  0.2499999999994121 0 0  0.2999999999992664 0 0  0.3499999999991206 0 0  0.3999999999989749 0 0  0.4499999999988292 0 0  0.4999999999986943 0 0  0.5499999999988151 0 0  0.5999999999989468 0 0  0.6499999999990784 0 0  0.69999999999921 0 0  0.7499999999993417 0 0  0.7999999999994734 0 0  0.8499999999996051 0 0  0.8999999999997368 0 0  0.9499999999998684 0 0  1 0.04999999999989965 0  1 0.09999999999981467 0  1 0.1499999999997036 0  1 0.1999999999995579 0  1 0.2499999999994121 0  1 0.2999999999992664 0  1 0.3499999999991206 0  1 0.3999999999989749 0  1 0.4499999999988292 0  1 0.4999999999986943 0  1 0.5499999999988151 0  1 0.5999999999989468 0  1 0.6499999999990784 0  1 0.69999999999921 0  1 0.7499999999993417 0  1 0.7999999999994734 0  1 0.8499999999996051 0  1 0.8999999999997368 0  1 0.9499999999998684 0  0.9499999999997918 1 0  0.8999999999995836 1 0  0.8499999999996529 1 0  0.7999999999999998 1 0  0.7500000000003466 1 0  0.7000000000006934 1 0  0.6500000000010401 1 0  0.6000000000013869 1 0  0.5500000000017335 1 0  0.5000000000020587 1 0  0.4500000000018723 1 0  0.4000000000016644 1 0  0.3500000000014564 1 0  0.3000000000012483 1 0  0.2500000000010403 1 0  0.2000000000008322 1 0  0.1500000000006241 1 0  0.100000000000416 1 0  0.05000000000020799 1 0  -0.1 1.05000000000004 0  -0.1 1.000000000000079 0  -0.1 0.9500000000001624 0  -0.1 0.9000000000003032 0  -0.1 0.850000000000444 0  -0.1 0.8000000000005848 0  -0.1 0.7500000000007256 0  -0.1 0.7000000000008665 0  -0.1 0.6500000000010508 0  -0.1 0.6000000000012352 0  -0.1 0.5500000000014196 0  -0.1 0.500000000001539 0  -0.1 0.4500000000014195 0  -0.1 0.4000000000013 0  -0.1 0.3500000000011588 0  -0.1 0.3000000000010178 0  -0.1 0.2500000000008986 0  -0.1 0.2000000000007579 0  -0.1 0.1500000000006174 0  -0.1 0.1000000000005272 0  -0.1 0.05000000000040083 0  -0.1 2.671196597248127e-13 0  -0.1 -0.0499999999998666 0  -0.0500000000000906 -0.1 0  -1.730560139634463e-13 -0.1 0  0.04999999999975802 -0.1 0  0.09999999999961506 -0.1 0  0.1499999999994613 -0.1 0  0.199999999999302 -0.1 0  0.2499999999991446 -0.1 0  0.2999999999990088 -0.1 0  0.3499999999988296 -0.1 0  0.3999999999986936 -0.1 0  0.4499999999985143 -0.1 0  0.4999999999984002 -0.1 0  0.5499999999985247 -0.1 0  0.5999999999986493 -0.1 0  0.6499999999987955 -0.1 0  0.6999999999989417 -0.1 0  0.7499999999990659 -0.1 0  0.7999999999992116 -0.1 0  0.8499999999993573 -0.1 0  0.8999999999994526 -0.1 0  0.949999999999584 -0.1 0  0.9999999999997226 -0.1 0  1.049999999999861 -0.1 0  1.1 -0.0500000000000906 0  1.1 -1.730560139634463e-13 0  1.1 0.04999999999975802 0  1.1 0.09999999999961506 0  1.1 0.1499999999994613 0  1.1 0.199999999999302 0  1.1 0.2499999999991446 0  1.1 0.2999999999990088 0  1.1 0.3499999999988296 0  1.1 0.3999999999986936 0  1.1 0.4499999999985143 0  1.1 0.4999999999984002 0  1.1 0.5499999999985247 0  1.1 0.5999999999986493 0  1.1 0.6499999999987955 0  1.1 0.6999999999989417 0  1.1 0.7499999999990659 0  1.1 0.7999999999992116 0  1.1 0.8499999999993573 0  1.1 0.8999999999994526 0  1.1 0.949999999999584 0  1.1 0.9999999999997226 0  1.1 1.049999999999861 0  1.05000000000004 1.1 0  1.000000000000079 1.1 0  0.9500000000001624 1.1 0  0.9000000000003032 1.1 0  0.850000000000444 1.1 0  0.8000000000005848 1.1 0  0.7500000000007256 1.1 0  0.7000000000008665 1.1 0  0.6500000000010508 1.1 0  0.6000000000012352 1.1 0  0.5500000000014196 1.1 0  0.500000000001539 1.1 0  0.4500000000014195 1.1 0  0.4000000000013 1.1 0  0.3500000000011588 1.1 0  0.3000000000010178 1.1 0  0.2500000000008986 1.1 0  0.2000000000007579 1.1 0  0.1500000000006174 1.1 0  0.1000000000005272 1.1 0  0.05000000000040083 1.1 0  2.671196597248127e-13 1.1 0  -0.0499999999998666 1.1 0  0.2465289643209738 0.5750469069761034 0  0.2589180387309568 0.6021697846026409 0  0.2747083932025376 0.6274536430974942 0  0.2941404337890808 0.6499343033106844 0  0.3167132260969703 0.6690419889457246 0  0.3406932757572141 0.6862165230989037 0  0.365774264459001 0.701772903228042 0  0.3921579640385729 0.7150765682819419 0  0.4196260098217917 0.7259600340839343 0  0.4479643658543294 0.7344675833415872 0  0.4769478160595593 0.7404054647294698 0  0.5062613511534056 0.7441053660519258 0  0.5359099490634545 0.745383230205881 0  0.5655853047907973 0.7423597099915746 0  0.5942985657463667 0.7342697177990435 0  0.6217433536562845 0.7224712513624385 0  0.6473285310693665 0.7072123264566247 0  0.6705825525979633 0.6885546640181438 0  0.6913537267623945 0.6672073636559692 0  0.7092356094146669 0.6434604341567033 0  0.723707260807358 0.6174041679716882 0  0.7347839970057712 0.5897122642335685 0  0.7423017965237766 0.5608939989586904 0  0.7452505675408858 0.5312286215058416 0  0.7439714482085739 0.5015668042066432 0  0.7399930365921698 0.4721667247496942 0  0.7334413776099669 0.4433267546212828 0  0.7242347132500166 0.4152264979412081 0  0.7128969715650773 0.3879474317681406 0  0.6995073964724725 0.3616242486021463 0  0.6838446850577403 0.3366049711337203 0  0.6663214582554013 0.3129017154203705 0  0.6467408645753113 0.2906980990239674 0  0.623858421612685 0.2717210897886947 0  0.5981711622501756 0.25657075503598 0  0.5706555494987996 0.2450104947802754 0  0.5414415690733032 0.2381890113046976 0  0.5115311405465578 0.2388009236279613 0  0.4825331918515813 0.2452448098353265 0  0.4543927356475811 0.2544015653709283 0  0.4271747159429622 0.2660387077532761 0  0.4014855938135519 0.2804620394460495 0  0.3768550652792438 0.2966886061895905 0  0.3535600298101645 0.3148369389307433 0  0.3318708687313669 0.3349017550803016 0  0.3120266220748985 0.3567230083816654 0  0.2940491256405332 0.3801513822799634 0  0.2781523468070614 0.4050359325926587 0  0.2642210100827245 0.431071323247369 0  0.2531745878839552 0.4585042705214109 0  0.2447656278767947 0.4869121522457573 0  0.2391016590460906 0.5160174738058162 0  0.2633526288157777 0.5068364881403838 0  0.3204662916778671 0.640531242317568 0  0.5018702191721387 0.2686481603512889 0  0.6386485206000976 0.3169842373689141 0  0.3899018709481696 0.6863921243515584 0  0.6850018760401537 0.3863958853077895 0  0.7113678345544184 0.4636225259129611 0  0.7142041287075965 0.5719474394840144 0  0.6596948563182636 0.6629363384667297 0  0.5783992788855646 0.715641870583677 0  0.4677799975007779 0.7119563861842005 0  0.4276708426680418 0.2956525534010332 0  0.358964893971407 0.3431376512034048 0  0.3073490611397391 0.404970416869651 0  0.5753364042052034 0.2732089479472559 0  0.2749243394528537 0.5779706265953781 0  0.2818595548229338 0.4533557651063601 0  0.6947121940362158 0.6148544269119373 0  0.6199297810551555 0.692889387483056 0  0.7190405989985688 0.5185513055271536 0  0.5219907308866897 0.7197562681556483 0  0.4024673356883363 0.309917312820394 0  0.4279595630555577 0.324946176244254 0  0.4542368394459985 0.3091854572640063 0  0.4559920937740647 0.3392891520390409 0  0.4274288923939045 0.354883017832761 0  0.4557467721037662 0.3663170326563893 0  0.4314697565028535 0.3922651458667271 0  0.4840094499307586 0.355657739001789 0  0.4836361683882573 0.3962628427367071 0  0.5247245477929739 0.3645712549679508 0  0.4472836176093689 0.4308236434783246 0  0.4082360737736604 0.4345070802903125 0  0.5206593405891563 0.3275447785541702 0  0.5599796611004036 0.3534108094663054 0  0.5762005437545223 0.3853677585289254 0  0.5550353319893666 0.3126475190855688 0  0.4366897904266438 0.4790130350723149 0  0.365764182994814 0.47298756668148 0  0.3947558028008716 0.5227916860808283 0  0.3444943882891168 0.5188733131743165 0  0.361188450885825 0.5685590065946453 0  0.4115698561329518 0.5701905361089746 0  0.3881248700751457 0.6066984198919503 0  0.4290023583717641 0.6178842554848916 0  0.4591074899044231 0.5784414799590475 0  0.4673886881501403 0.6229350723697946 0  0.5067320793329073 0.5932903545209111 0  0.5274127861654652 0.6264230599743749 0  0.5586171297974514 0.6011509495201943 0  0.5839074660321816 0.6362888882627391 0  0.6040034097850343 0.6061027541623758 0  0.5976349451002018 0.5639539753036101 0  0.6325110424581535 0.5647206318566058 0  0.6282532108368744 0.5233795896493915 0  0.5491586792523461 0.6709651279125697 0  0.6173152491102039 0.6371913426312253 0  0.4434130939474373 0.6566033805710745 0  0.489219695088794 0.6716461089049511 0  0.6061232569304884 0.3627457018748987 0  0.6065415052529167 0.4064676667268876 0  0.5856667391689446 0.4349397937360321 0  0.6331068389911165 0.3758079970630089 0  0.594901321140165 0.3304723909012237 0  0.5820769924681246 0.513568947345345 0  0.6242974712512932 0.4499131275121772 0  0.6496782552301654 0.4302116143612975 0  0.6586159621213373 0.4596265626011655 0  0.6785148769053461 0.4338334403440297 0  0.3983153743250791 0.3689975653048727 0  0.4021245421912973 0.6398008877773841 0  0.3691190688471667 0.6402452824819193 0  0.3544553147897194 0.6102789257841292 0  0.3285795655227679 0.576818879294055 0  0.6704946454396609 0.5358149504932292 0  0.6736249866357972 0.5707587215217066 0  0.6416302082101981 0.6139197277191298 0  0.5978776004601217 0.6680005787317295 0  0.3248588518271625 0.4757070710950772 0  0.34769381537
[...]
<PointData  Scalars="v"> 
<DataArray  type="Float64"  Name="v"  format="ascii">0.0000000000000000e+00  0.0000000000000000e+00  0.0000000000000000e+00  0.0000000000000000e+00  0.0000000000000000e+00  0.0000000000000000e+00  0.0000000000000000e+00  0.0000000000000000e+00  3.5640991321528057e-05  2.0163692472010407e-05  0.0000000000000000e+00  0.0000000000000000e+00  0.0000000000000000e+00  0.0000000000000000e+00  0.0000000000000000e+00  0.0000000000000000e+00  0.0000000000000000e+00  0.0000000000000000e+00  0.0000000000000000e+00  0.0000000000000000e+00  0.0000000000000000e+00  0.0000000000000000e+00  0.0000000000000000e+00  0.0000000000000000e+00  0.0000000000000000e+00  0.0000000000000000e+00  0.0000000000000000e+00  0.0000000000000000e+00  0.0000000000000000e+00  0.0000000000000000e+00  0.0000000000000000e+00  0.0000000000000000e+00  0.0000000000000000e+00  0.0000000000000000e+00  0.0000000000000000e+00  0.0000000000000000e+00  0.0000000000000000e+00  0.0000000000000000e+00  0.0000000000000000e+00  0.0000000000000000e+00  0.0000000000000000e+00  0.0000000000000000e+00  0.0000000000000000e+00  0.0000000000000000e+00  0.0000000000000000e+00  0.0000000000000000e+00  0.0000000000000000e+00  0.0000000000000000e+00  0.0000000000000000e+00  0.0000000000000000e+00  0.0000000000000000e+00  0.0000000000000000e+00  0.0000000000000000e+00  0.0000000000000000e+00  0.0000000000000000e+00  0.0000000000000000e+00  0.0000000000000000e+00  0.0000000000000000e+00  0.0000000000000000e+00  0.0000000000000000e+00  0.0000000000000000e+00  0.0000000000000000e+00  0.0000000000000000e+00  0.0000000000000000e+00  0.0000000000000000e+00  0.0000000000000000e+00  0.0000000000000000e+00  0.0000000000000000e+00  0.0000000000000000e+00  0.0000000000000000e+00  0.0000000000000000e+00  0.0000000000000000e+00  0.0000000000000000e+00  0.0000000000000000e+00  0.0000000000000000e+00  0.0000000000000000e+00  0.0000000000000000e+00  0.0000000000000000e+00  0.0000000000000000e+00  0.0000000000000000e+00  0.0000000000000000e+00  0.0000000000000000e+00  0.0000000000000000e+00  0.0000000000000000e+00  0.0000000000000000e+00  0.0000000000000000e+00  0.0000000000000000e+00  0.0000000000000000e+00  0.0000000000000000e+00  0.0000000000000000e+00  0.0000000000000000e+00  0.0000000000000000e+00  0.0000000000000000e+00  0.0000000000000000e+00  0.0000000000000000e+00  0.0000000000000000e+00  0.0000000000000000e+00  0.0000000000000000e+00  0.0000000000000000e+00  0.0000000000000000e+00  0.0000000000000000e+00  0.0000000000000000e+00  0.0000000000000000e+00  0.0000000000000000e+00  0.0000000000000000e+00  0.0000000000000000e+00  0.0000000000000000e+00  0.0000000000000000e+00  0.0000000000000000e+00  0.0000000000000000e+00  0.0000000000000000e+00  0.0000000000000000e+00  0.0000000000000000e+00  0.0000000000000000e+00  0.0000000000000000e+00  0.0000000000000000e+00  0.0000000000000000e+00  0.0000000000000000e+00  0.0000000000000000e+00  0.0000000000000000e+00  0.0000000000000000e+00  0.0000000000000000e+00  0.0000000000000000e+00  0.0000000000000000e+00  0.0000000000000000e+00  0.0000000000000000e+00  0.0000000000000000e+00  0.0000000000000000e+00  0.0000000000000000e+00  0.0000000000000000e+00  0.0000000000000000e+00  0.0000000000000000e+00  0.0000000000000000e+00  0.0000000000000000e+00  0.0000000000000000e+00  0.0000000000000000e+00  0.0000000000000000e+00  0.0000000000000000e+00  0.0000000000000000e+00  0.0000000000000000e+00  0.0000000000000000e+00  0.0000000000000000e+00  0.0000000000000000e+00  0.0000000000000000e+00  0.0000000000000000e+00  0.0000000000000000e+00  0.0000000000000000e+00  0.0000000000000000e+00  0.0000000000000000e+00  0.0000000000000000e+00  0.0000000000000000e+00  0.0000000000000000e+00  0.0000000000000000e+00  0.0000000000000000e+00  0.0000000000000000e+00  0.0000000000000000e+00  0.0000000000000000e+00  0.0000000000000000e+00  0.0000000000000000e+00  0.0000000000000000e+00  0.0000000000000000e+00  0.0000000000000000e+00  0.0000000000000000e+00  0.0000000000000000e+00  0.0000000000000000e+00  0.0000000000000000e+00  0.0000000000000000e+00  0.0000000000000000e+00  0.0000000000000000e+00  0.0000000000000000e+00  0.0000000000000000e+00  0.0000000000000000e+00  0.0000000000000000e+00  0.0000000000000000e+00  0.0000000000000000e+00  0.0000000000000000e+00  0.0000000000000000e+00  0.0000000000000000e+00  1.8701477721214064e-05  1.9593065174569745e-05  2.2134693225894340e-05  2.5757007141275304e-05  2.9984282898999687e-05  3.4310833537140428e-05  3.8178059511679845e-05  4.1150543503352347e-05  4.3046917866081955e-05  4.3625707636017271e-05  4.3195923392191854e-05  4.1747639029411789e-05  3.9711334423712789e-05  3.7497058488070199e-05  3.5656799947963121e-05  3.4003734244389992e-05  3.3028084069221531e-05  3.2581351880958669e-05  3.2519310143729043e-05  3.3344009132279376e-05  3.4899385952764091e-05  3.6818063569846597e-05  3.8745834644383890e-05  4.0765465783105282e-05  4.2603643774750968e-05  4.3487215314641115e-05  4.3875427352829430e-05  4.2882645831486008e-05  4.0870554133880166e-05  3.7717610347951160e-05  3.3707316016935914e-05  2.9379521360473929e-05  2.5101550931564034e-05  2.1526027845848799e-05  1.9166320966790143e-05  1.8708242059436247e-05  2.0343423170049445e-05  2.4138269747903788e-05  2.9441902585049786e-05  3.5728673677350769e-05  4.1768960003994882e-05  4.7406413510546469e-05  5.1820640854147834e-05  5.4611197649369029e-05  5.5431883978340741e-05  5.4416582472582159e-05  5.1286370067520522e-05  4.6709394112065285e-05  4.1021829443115027e-05  3.4830115557840366e-05  2.8865638365096185e-05  2.3752802711280945e-05  2.3594572974462657e-05  2.4868572860201881e-05  2.4321946638566718e-05  2.4480858284832897e-05  3.3987771185266781e-05  3.3896933735860951e-05  3.7137873164343774e-05  3.2934517664687009e-05  2.9386475540451682e-05  3.2081270601571024e-05  3.6859344268511621e-05  3.7370985795507233e-05  4.5463446612546175e-05  4.1032523742703052e-05  1.8603536375352778e-05  1.8638523661694573e-05  3.2864539674368808e-05  3.0697140826323951e-05  2.9907957098543821e-05  3.5785573921105278e-05  3.5128995840380786e-05  4.1452052058668095e-05  3.7992927913531295e-05  3.3998023142870191e-05  3.5820276856340329e-05  3.9049451610036997e-05  3.6854122187927517e-05  3.8558262424627594e-05  3.3908443872608280e-05  3.5262489610945796e-05  3.1252396977419976e-05  3.6919090696653526e-05  3.7752724987284514e-05  2.8636832329771828e-05  2.8976046863095126e-05  3.1358917527842915e-05  2.4627597901373502e-05  3.5017485383156005e-05  3.4371403364967804e-05  3.2251627992961384e-05  2.9601901820979872e-05  2.8549307257947635e-05  3.2274550101881253e-05  3.1004490898285221e-05  3.3926597692789345e-05  3.4657315592341259e-05  3.5427274410105524e-05  3.5119686717619801e-05  3.5320682962154489e-05  3.4503727897795361e-05  3.3704225017004651e-05  3.3790335919694195e-05  3.4695290582668359e-05  3.4689828104324601e-05  3.5628185966850777e-05  3.4209313551252607e-05  3.2197339948173510e-05  3.5366514995701378e-05  3.5919155921160301e-05  2.9211197917899621e-05  3.3045330162493366e-05  3.4177101321267940e-05  3.0749051865880426e-05  2.5416546737676893e-05  3.5386123333601805e-05  3.5406516150447178e-05  3.5017793899454078e-05  3.6080706487455465e-05  3.5544103435831735e-05  4.1124667116336139e-05  3.2737760005868963e-05  2.9768427910872592e-05  2.7861141417967139e-05  2.5269947133509098e-05  3.5198563916376767e-05  3.3501068649345143e-05  3.2250512492365736e-05  3.1772647811004736e-05  3.2416000145357592e-05  3.7719397111212501e-05  2.7221861160029729e-05  4.0902519416349859e-05  3.4089576813891435e-05  3.1139234819733294e-05  2.9395560981190305e-05  2.6825417887824250e-05  2.2460122113576109e-05  2.4061391754274717e-05  3.5878807579624102e-05  4.0901820047758703e-05  3.6189335458301045e-05  3.5651954637056784e-05  3.6173247719708069e-05  3.3658512750542514e-05  3.5046842555334986e-05  3.6351494195940245e-05  3.5332775414288883e-05  2.8202351378277727e-05  3.5864400820506649e-05  3.1323364069247512e-05  2.7822841566129167e-05  2.7026356847494613e-05  4.5404454356321319e-05  4.2311077822960731e-05  3.1253227889996764e-05  4.3882612511077663e-05  4.0196432889982472e-05  3.6513099165160147e-05  3.5892254493562842e-05  3.4229001048120562e-05  3.7004293368827203e-05  4.0275053455195948e-05  2.8041073470834825e-05  3.4757480904805100e-05  3.4278196140046133e-05  3.0605705370645319e-05  3.0243069342993470e-05  3.1249396632762975e-05  2.9683539196279721e-05  3.2885580570028929e-05  2.9814407478671322e-05  3.6996734240035663e-05  3.4163142704669274e-05  1.9933463939925330e-05  1.9788946478929913e-05  2.2376360480185250e-05  3.1474660405006970e-05  3.2115173443806809e-05  3.7315315258458930e-05  4.4226841320066219e-05  3.2619616357891653e-05  3.4450623156033730e-05  2.1983862118183520e-05  2.1618603105316361e-05  1.8899775485622843e-05  2.2837208339451585e-05  3.6002052396658713e-05  2.2183068390524270e-05  3.3739074957742999e-05  2.1902631326165795e-05  1.8898554557677476e-05  3.5108801150490048e-05  3.5969189364914449e-05  3.5351000153608010e-05  3.4071470961780560e-05  3.5501284936105307e-05  3.3445976059126246e-05  3.4640251126023873e-05  4.1838534459269730e-05  2.6950269116080103e-05  3.2218180095616895e-05  2.8953172470565067e-05  3.3324719111056653e-05  2.5252721764451874e-05  2.0824473973318959e-05  2.9802854919695533e-05  3.6230675216761691e-05  2.1566366035545044e-05  3.1895257944188089e-05  3.5526016353715093e-05  2.5255421654737352e-05  2.6662002328098387e-05  3.2066123740019473e-05  2.9567087601555333e-05  3.3611932877990541e-05  4.2536872163560415e-05  2.0631283771864405e-05  3.3088966455706038e-05  2.6022988691319176e-05  3.5510577060174775e-05  3.5834574949301150e-05  2.7684430452337296e-05  3.8873020432374548e-05  3.5289356279351650e-05  2.3094293471076145e-05  2.8198962071071660e-05  3.4364668468879132e-05  3.4189023872105174e-05  3.1405261340922937e-05  2.4110968454722989e-05  3.1548678384420257e-05  2.6002649708473480e-05  3.5291361847419220e-05  3.4769341338204004e-05  3.7388557090527119e-05  3.0376341295624109e-05  3.5953274079884127e-05  3.3878695903201007e-05  2.6498860526267274e-05  3.9778810726331172e-05  3.1306955632753866e-05  3.1001568004784358e-05  6.2928215297455473e-05  3.0160181478469062e-05  3.5661909854090910e-05  5.5998923749174207e-05  2.1420785280272539e-05  4.4218656622138907e-05  4.4479679639033270e-05  2.2204846166776282e-05  5.1187557882270738e-05  2.0470602292792272e-05  2.0336400344693032e-05  3.7973541888074889e-05  4.2820411921366693e-05  3.9410976329602102e-05  8.7879523686639531e-06  4.4108244144099724e-05  4.9455222194550844e-05  4.8810368910429740e-05  5.0813878343317115e-06  5.3980975844591509e-06  3.5519130645430661e-05  4.6046392264391101e-06  3.1718014963790559e-06  4.8464531327460335e-06  3.2581402438446962e-06  2.9941080004336245e-05  9.2274229616762945e-06  8.1401062362381344e-06  7.8365008219892834e-06  7.7169088108071938e-06  6.7494687726794832e-06  6.1155187139791605e-06  2.7462887504747543e-06  6.8380581858511648e-06  2.9320398623962738e-06  4.1547514818934089e-06  3.1940767840192616e-06  8.8356079353117050e-06  7.8903908045261887e-06  7.5043815396009129e-06  3.1351592642183161e-06  2.8990627327396752e-06  2.7070526908338311e-06  6.1627993653951153e-06  3.0016189768411613e-06  3.7581186400325747e-06  2.7926141962341766e-06  4.4848111136284999e-06  2.3095902587744760e-05  2.1020635484217795e-05  2.4043285761834294e-05  2.0516594562361890e-05  2.3181453144333855e-05  1.8642330183245619e-05  1.7354897606136896e-05  1.6112158352394139e-05  1.4316159959776951e-05  1.3679364264443061e-05  1.6111003845560655e-05  1.4106531335107528e-05  1.7246809148749401e-05  1.5287264624011639e-05  1.8983235123075477e-05  1.6733464088738953e-05  2.0888261132217338e-05  1.7845590067244262e-05  2.2138936250652375e-05  1.8398679998395549e-05  2.2206486418925375e-05  2.6790187644633263e-05  2.5993851126198308e-05  1.3154378671590124e-05  1.7750569600712430e-05  1.4498677774191274e-05  3.1188998260157859e-05  2.9345246332705306e-05  2.3774465780591935e-05  3.4687620355465661e-05  3.1920764375749869e-05  3.8437389527363142e-05  3.3333357593648148e-05  3.8714397863433878e-05  3.3482868837131569e-05  3.8350987413823161e-05  3.2235414052266166e-05  3.5982975805955958e-05  1.3479410912047465e-05  2.9554712889186995e-05  3.3173905366018960e-05  2.6447380769027554e-05  2.9774356802124115e-05  2.4702328372834263e-05  2.7637324265858942e-05  3.1632647777396893e-05  1.1418020978953653e-05  1.0703950227982249e-05  1.1209846493779235e-05  1.6037375668038980e-05  1.2165742706256264e-05  1.3908758873890990e-05  2.3107514637646349e-05  2.6175458258395046e-05  3.1840764042512655e-05  2.8223325134648003e-05  2.2884660416293246e-05  2.5014117928318459e-05  1.9814968400432466e-05  2.1963152620842054e-05  2.6580221978056084e-05  2.3330122195662912e-05  2.7372975799214446e-05  2.4026336406458642e-05  1.9952672271542909e-05  2.0494853861750305e-05  2.4888368045669976e-05  2.0644413607350247e-05  2.4267457576280204e-05  1.9914701792123522e-05  2.3676600544717449e-05  1.6468698589809026e-05  2.7993747415077628e-05  2.7466716600184225e-05  1.8517507765135601e-05  1.6490638486153955e-05  3.1066817774197118e-05  3.1009031007820539e-05  1.6887600224101666e-05  3.2347726034140706e-05  3.1411369621342540e-05  2.6557407355782457e-05  3.0658346814434800e-05  2.4708845358472095e-05  2.8888601796992242e-05  2.2010562243230849e-05  2.6156252609163318e-05  3.2782690957493423e-05  2.9855939792496605e-05  3.7452879690391989e-05  3.3065348243455831e-05  3.9633563644655998e-05  3.5113036055948816e-05  4.1638800161678300e-05  3.5921893585571678e-05  4.0773709422628577e-05  3.5046054850555490e-05  3.0254927778995982e-05  2.9488579654012370e-05  3.2935166677146764e-05  2.7511470618808651e-05  2.9748610938213302e-05  2.4762122284393011e-05  2.5849780211116558e-05  2.1338930648151209e-05  2.1708935697940055e-05  1.7693791861481105e-05  1.7556227264109461e-05  1.6996635424408106e-05  2.4240141128647978e-05  2.0962323718552080e-05  1.6750640788382730e-05  1.3783253194517888e-05  1.3119638227435151e-05  1.3919418992526391e-05  1.3025401755773045e-05  1.0310214245456440e-05  1.5607206176147710e-05  1.2664752003642443e-05  2.8953459021800237e-05  1.5441906089922056e-05  3.1709956667742838e-05  3.0683709435018338e-05  1.5347962470845760e-05  1.2815259771867999e-05  1.5560876034400010e-05  1.3925666354719883e-05  1.7817782365591863e-05  1.5985308912127469e-05  2.1161217868503016e-05  1.8967493562106353e-05  2.6245830501020839e-05  2.2945796672673657e-05  3.0355899035820690e-05  2.6206504828770031e-05  3.3845684526181939e-05  2.8583398646705938e-05  3.6028627504789288e-05  2.9623372714305265e-05  3.7140382103727870e-05  4.4307304431949194e-05  4.3506901934082480e-05  3.5803861077923688e-05  4.0874578245713866e-05  4.8245863156115711e-05  4.4006554944235284e-05  3.6821848865809714e-05  3.8230913988051162e-05  4.4827896577570388e-05  3.7732710260998626e-05  4.3089262458295894e-05  3.1278686296320515e-05  5.0190553646910773e-05  4.7151213613160387e-05  3.9431680334065115e-05  4.2181565832514918e-05  3.4403800128888854e-05  3.1221122586671640e-05  3.5661790554380730e-05  2.8422452301125484e-05  2.9145311231405407e-05  2.4155348064197437e-05  4.3444808178811396e-05  2.8328716390410573e-05  2.2028998253313009e-05  5.4220554335544792e-05  3.9114263967139927e-05  4.3694578219241942e-05  1.0510338156243137e-05  4.3456174510047192e-05  2.4355258636398969e-05  1.1220765402957106e-05  1.0585830912439693e-05  5.6194362496508096e-05  3.3058600792221210e-05  3.5251640072381346e-05  1.5853487464814718e-05  3.4000252028683560e-05  2.2098159896610649e-05  2.4553202787908980e-05  3.9252702873261116e-05  6.0227672244763305e-05  6.0554448582134169e-05  1.8473106853246572e-05  2.7705838322361802e-05  9.6134498616720627e-06  1.6076872110149528e-05  8.1463082506651490e-06  3.6767215524397105e-05  1.7839856681607709e-05  2.1250370603591481e-05  1.7136290585610533e-05  2.4965782252082370e-05  2.2444972941828581e-05  1.5612764615953047e-05  1.2482107989819096e-05  1.3125918263824537e-05  9.4113408710965962e-06  9.4597706364165245e-06  3.5297485621690692e-05  1.0733282799067289e-05  7.5992595552332654e-06  1.4214958386493409e-05  1.9639759246772057e-05  3.4651571345355573e-05  1.2669327984784374e-05  4.5670200191257609e-05  4.4207127297711155e-05  4.7874324983512638e-05  3.6914956929509570e-05  2.1156574006687514e-05  1.5155755799982574e-05  2.2205410584554093e-05  2.6330926272428706e-05  3.0625134462550380e-05  5.6796123752583115e-05  6.1776949516679705e-05  7.4967957807666735e-06  8.3302511457384931e-06  3.3878129793284244e-05  3.5841020127075595e-05  3.1536835988047604e-05  3.6193339787745796e-05  1.1547187678518922e-05  7.9692441110409188e-06  1.8916812243008529e-05  1.4931869996325471e-05  2.1504187392378490e-05  6.3335040821329596e-05  6.2650179256274420e-05  5.9219460846139350e-05  6.0442940478818028e-05  5.6423060423361767e-05  5.6629489149344215e-05  6.0108432493496252e-05  2.2786152427248309e-05  7.9809977627308671e-06  7.4498627515546225e-06  3.6849746912811059e-05  3.9788765361778097e-05  4.0170852209422053e-05  9.6986612085547133e-06  8.6831107618359905e-06  1.2371184985231157e-05  8.2757545244649985e-06  1.0915594780717795e-05  7.6084509597527410e-06  1.9687069763560868e-05  1.6216148089788569e-05  1.7519099956163280e-05  1.3913854516437679e-05  2.6055250053846153e-05  2.7958426720533971e-05  3.2188543763895169e-05  2.4049515841854454e-05  2.8531271347229254e-05  2.6301951082181690e-05  2.3964730606287759e-05  2.8486759887680890e-05  3.3405670331924086e-05  1.6478766345906723e-05  2.0797124336361418e-05  1.9214398938931128e-05  1.5025770735641998e-05  2.0088509243202004e-05  5.0116653860801567e-06  4.5524321858717656e-05  4.6334258818040066e-05  4.4972994486972172e-05  4.2945007250238932e-05  4.1012386140651097e-05  4.6465372001070271e-05  6.5935147522912605e-06  4.8167051248204907e-05  2.8590785745956041e-05  5.5374916556033106e-05  5.1200689596742737e-05  4.9373163633368157e-05  4.5573087101364870e-05  3.3727016085853350e-05  8.0966231870438289e-06  1.9091815980842998e-05  1.8240918522103905e-05  2.0924362445446053e-05  4.3660039493356792e-05  4.5866881060425353e-05  3.8051937197666985e-05  1.9932425141798317e-05  1.9063427225183097e-05  6.3696727990486505e-05  4.5265387073541772e-05  5.1385087165912438e-05  4.5611331369198039e-05  2.9123247017569857e-05  4.1950300248353886e-05  3.9807762892870980e-05  3.6709335641942791e-05  4.8261808436862421e-05  4.2735197224687960e-05  3.9655609126062760e-05  4.6016582293237785e-05  4.1777185235213483e-05  3.6089662407592617e-05  4.9393013840191444e-05  5.2443307027132687e-05  1.9942166773791625e-05  4.8754207490467260e-05  4.8678526305557089e-05  4.8159961291843169e-05  4.8302932661496345e-05  4.5936869716836474e-05  4.5051965170411014e-05  4.0239826232807194e-05  4.2304603977529929e-05  3.8523308880191786e-05  3.2013102439879313e-05  3.8961182778709914e-05  4.1520836292727657e-05  4.0662023847658072e-05  4.2620058548827931e-05  4.5373939827247087e-05  4.1690827235927520e-05  3.8438907026229590e-05  3.3461610127931959e-05  4.3690371122011740e-05  3.5794268338880504e-05  3.2693476255476008e-05  4.7499331518005688e-05  2.5960232132456841e-05  1.0320610138835644e-05  2.5484269738272190e-05  3.2975143836987536e-05  4.5747458283203291e-05  3.6387989571550431e-05  4.8071757796360203e-05  5.0016326112871411e-05  7.7051444310431886e-06  6.1619777194865067e-06  3.8697778487643800e-05  5.3569022573454797e-06  9.5735281718854761e-06  8.2755327838550008e-06  4.0422497817788299e-06  6.5726635050465155e-06  1.1999524262492989e-05  1.5123482858465343e-05  2.8001592418059326e-05  3.5802227904345434e-05  5.1004803710613478e-05  2.5385171749359318e-05  2.4827272564531222e-05  8.2907581458237899e-06  1.5749260905721606e-05  1.4989295194597632e-05  2.3321140712886949e-05  7.2479101573144025e-06  6.7244157490500442e-06  2.0383505923053205e-05  1.6443151486502543e-05  1.7342986799531053e-05  3