<?xml version="1.0"?>
<VTKFile type="UnstructuredGrid"  version="0.1"  >
<UnstructuredGrid>
<Piece  NumberOfPoints="1251" NumberOfCells="2404">
<Points>
<DataArray  type="Float64"  NumberOfComponents="3"  format="ascii">0 0 0  0 1 0  1 1 0  1 0 0  1.1 -0.1 0  -0.1 -0.1 0  1.1 1.1 0  -0.1 1.1 0  0.5001989876874878 0.5002918580194303 0  0.2517454196565788 0.5433670937900019 0  0 0.9499999999997918 0  0 0.8999999999995836 0  0 0.8499999999996529 0  0 0.7999999999999998 0  0 0.7500000000003466 0  0 0.7000000000006934 0  0 0.6500000000010401 0  0 0.6000000000013869 0  0 0.5500000000017335 0  0 0.5000000000020587 0  0 0.4500000000018723 0  0 0.4000000000016644 0  0 0.3500000000014564 0  0 0.3000000000012483 0  0 0.2500000000010403 0  0 0.2000000000008322 0  0 0.1500000000006241 0  0 0.100000000000416 0  0 0.05000000000020799 0  0.04999999999989965 0 0  0.09999999999981467 0 0  0.1499999999997036 0 0  0.1999999999995579 0 0  0.2499999999994121 0 0  0.2999999999992664 0 0  0.3499999999991206 0 0  0.3999999999989749 0 0  0.4499999999988292 0 0  0.4999999999986943 0 0  0.5499999999988151 0 0  0.5999999999989468 0 0  0.6499999999990784 0 0  0.69999999999921 0 0  0.7499999999993417 0 0  0.7999999999994734 0 0  0.8499999999996051 0 0  0.8999999999997368 0 0  0.9499999999998684 0 0  1 0.04999999999989965 0  1 0.09999999999981467 0  1 0.1499999999997036 0  1 0.1999999999995579 0  1 0.2499999999994121 0  1 0.2999999999992664 0  1 0.3499999999991206 0  1 0.3999999999989749 0  1 0.4499999999988292 0  1 0.4999999999986943 0  1 0.5499999999988151 0  1 0.5999999999989468 0  1 0.6499999999990784 0  1 0.69999999999921 0  1 0.7499999999993417 0  1 0.7999999999994734 0  1 0.8499999999996051 0  1 0.8999999999997368 0  1 0.9499999999998684 0  0.9499999999997918 1 0  0.8999999999995836 1 0  0.8499999999996529 1 0  0.7999999999999998 1 0  0.7500000000003466 1 0  0.7000000000006934 1 0  0.6500000000010401 1 0  0.6000000000013869 1 0  0.5500000000017335 1 0  0.5000000000020587 1 0  0.4500000000018723 1 0  0.4000000000016644 1 0  0.3500000000014564 1 0  0.3000000000012483 1 0  0.2500000000010403 1 0  0.2000000000008322 1 0  0.1500000000006241 1 0  0.100000000000416 1 0  0.05000000000020799 1 0  -0.1 1.05000000000004 0  -0.1 1.000000000000079 0  -0.1 0.9500000000001624 0  -0.1 0.9000000000003032 0  -0.1 0.850000000000444 0  -0.1 0.8000000000005848 0  -0.1 0.7500000000007256 0  -0.1 0.7000000000008665 0  -0.1 0.6500000000010508 0  -0.1 0.6000000000012352 0  -0.1 0.5500000000014196 0  -0.1 0.500000000001539 0  -0.1 0.4500000000014195 0  -0.1 0.4000000000013 0  -0.1 0.3500000000011588 0  -0.1 0.3000000000010178 0  -0.1 0.2500000000008986 0  -0.1 0.2000000000007579 0  -0.1 0.1500000000006174 0  -0.1 0.1000000000005272 0  -0.1 0.05000000000040083 0  -0.1 2.671196597248127e-13 0  -0.1 -0.0499999999998666 0  -0.0500000000000906 -0.1 0  -1.730560139634463e-13 -0.1 0  0.04999999999975802 -0.1 0  0.09999999999961506 -0.1 0  0.1499999999994613 -0.1 0  0.199999999999302 -0.1 0  0.2499999999991446 -0.1 0  0.2999999999990088 -0.1 0  0.3499999999988296 -0.1 0  0.3999999999986936 -0.1 0  0.4499999999985143 -0.1 0  0.4999999999984002 -0.1 0  0.5499999999985247 -0.1 0  0.5999999999986493 -0.1 0  0.6499999999987955 -0.1 0  0.6999999999989417 -0.1 0  0.7499999999990659 -0.1 0  0.7999999999992116 -0.1 0  0.8499999999993573 -0.1 0  0.8999999999994526 -0.1 0  0.949999999999584 -0.1 0  0.9999999999997226 -0.1 0  1.049999999999861 -0.1 0  1.1 -0.0500000000000906 0  1.1 -1.730560139634463e-13 0  1.1 0.04999999999975802 0  1.1 0.09999999999961506 0  1.1 0.1499999999994613 0  1.1 0.199999999999302 0  1.1 0.2499999999991446 0  1.1 0.2999999999990088 0  1.1 0.3499999999988296 0  1.1 0.3999999999986936 0  1.1 0.4499999999985143 0  1.1 0.4999999999984002 0  1.1 0.5499999999985247 0  1.1 0.5999999999986493 0  1.1 0.6499999999987955 0  1.1 0.6999999999989417 0  1.1 0.7499999999990659 0  1.1 0.7999999999992116 0  1.1 0.8499999999993573 0  1.1 0.8999999999994526 0  1.1 0.949999999999584 0  1.1 0.9999999999997226 0  1.1 1.049999999999861 0  1.05000000000004 1.1 0  1.000000000000079 1.1 0  0.9500000000001624 1.1 0  0.9000000000003032 1.1 0  0.850000000000444 1.1 0  0.8000000000005848 1.1 0  0.7500000000007256 1.1 0  0.7000000000008665 1.1 0  0.6500000000010508 1.1 0  0.6000000000012352 1.1 0  0.5500000000014196 1.1 0  0.500000000001539 1.1 0  0.4500000000014195 1.1 0  0.4000000000013 1.1 0  0.3500000000011588 1.1 0  0.3000000000010178 1.1 0  0.2500000000008986 1.1 0  0.2000000000007579 1.1 0  0.1500000000006174 1.1 0  0.1000000000005272 1.1 0  0.05000000000040083 1.1 0  2.671196597248127e-13 1.1 0  -0.0499999999998666 1.1 0  0.2570685160232102 0.5673109375143977 0  0.2648777292274176 0.5905918473751812 0  0.2751628276361914 0.6130245144421796 0  0.287830816963252 0.6343173723261589 0  0.3027244772127613 0.654229124895881 0  0.319638640200069 0.6726276187688058 0  0.3382209116240051 0.689420675159409 0  0.3584559627633978 0.7043261325861456 0  0.3801082168868208 0.7171805573707138 0  0.4028826908472708 0.728028033627771 0  0.4265066691388942 0.7367322298714747 0  0.4508248804350766 0.7430976984298244 0  0.4756162200435504 0.7471259506518089 0  0.5005868342805566 0.7487036245607493 0  0.5255423300231319 0.7478344276214095 0  0.5502116860674615 0.7444966938351602 0  0.5742891365474999 0.738590607428311 0  0.5975953184346796 0.7302311115483109 0  0.6199046429860458 0.7196064921448962 0  0.6409880816464534 0.7067788019419113 0  0.6606429319472706 0.6918928831457447 0  0.678727336673896 0.6751512683467884 0  0.695078328688755 0.6567225038978394 0  0.709534138671742 0.6367488993695064 0  0.7218981656458946 0.6153967764287324 0  0.7320389139787082 0.5928715716730973 0  0.7399240532839857 0.5694223116961595 0  0.7454134616668796 0.5452225471785933 0  0.7483708473541129 0.5205201108991014 0  0.7487826519331747 0.4955849328381137 0  0.7468308148245675 0.4706358465288498 0  0.7423243669293345 0.4459529120318203 0  0.7353948698355657 0.4217699020538646 0  0.7261894164398539 0.3983067794125639 0  0.7148713738689439 0.3757751591760164 0  0.7015001195786832 0.3544447068263172 0  0.6861554789599535 0.3345268077037595 0  0.6690250086033311 0.3162342401639751 0  0.6503137865666708 0.2996213302253529 0  0.6301265023737925 0.2851713696418341 0  0.6085829894894218 0.2729845882011326 0  0.5859578447805117 0.2631804212720238 0  0.5625004521813685 0.2558705800184236 0  0.5384585030989557 0.2510459562110344 0  0.5140286942194453 0.2489393904189266 0  0.4894784179370089 0.2494645433132475 0  0.4650133991602896 0.2524321831725453 0  0.4408718080564908 0.2578517112201356 0  0.417316458253789 0.2657218714638207 0  0.3945630125421213 0.2759067834768052 0  0.3727295058389354 0.2881071002050757 0  0.3521635228704156 0.3025383643639604 0  0.3329479308079811 0.3188059898108926 0  0.3153252145737626 0.3367616087511379 0  0.2993788710581245 0.3562361517133518 0  0.2854197865397047 0.3770806508330958 0  0.2735889801728454 0.399129482527726 0  0.2637904542819214 0.4220903956355724 0  0.2564452782405251 0.4457646287354058 0  0.2515452813189993 0.4699720779548515 0  0.2491068759445415 0.4944475743541824 0  0.2491415917885986 0.5189853854452912 0  0.5465426655091974 0.27395379021281 0  0.6265494079398504 0.3099469749304117 0  0.4579020537238796 0.2743116146271505 0  0.2734731296233084 0.5503551871787982 0  0.312543467764871 0.63401188940201 0  0.2749253849512192 0.4627822583135408 0  0.6552961077405653 0.6679938118126271 0  0.7084566352278244 0.5954421269875239 0  0.7284481042544484 0.5087898261394351 0  0.5799952093474992 0.7143252755671955 0  0.4890593283937041 0.7244133877001118 0  0.3110211885423092 0.3789125698290259 0  0.3720821955293123 0.3093909071441791 0  0.4224210377209578 0.7116098554501999 0  0.6884257906798167 0.375444909231233 0  0.7191274286769782 0.4397140546550041 0  0.3610485110853926 0.6788482431882832 0  0.3387811431134029 0.3422151677127995 0  0.4149326094086285 0.2896615407204978 0  0.2886742975568619 0.4192797693513496 0  0.6611908414866203 0.3398717003347042 0  0.685431273503007 0.6340572621878243 0  0.5339512144604506 0.7263228769341556 0  0.72293226701637 0.553504891814025 0  0.6205696111380132 0.6960383122648839 0  0.5025641286346445 0.2702304415325944 0  0.2696082030136085 0.5058766917763413 0  0.2879076844917249 0.5930424581392473 0  0.592346324994477 0.2864963903058843 0  0.3809919699203701 0.693133155771226 0  0.3846147374381917 0.6684924400705129 0  0.3639211143970683 0.653336889493139 0  0.3882745427666808 0.6430193105966707 0  0.3653983055314857 0.626987949129996 0  0.3946663347684901 0.6140706256748187 0  0.4192377935828715 0.6320702935492152 0  0.3693164137656668 0.5989037511176256 0  0.3950153669197367 0.5835706311937086 0  0.3628376922880435 0.5644346496382995 0  0.4296896806536201 0.5952237546847697 0  0.4530703119893242 0.6372136886981542 0  0.478795322197343 0.5984168017765571 0  0.4890588076685836 0.6388785965888569 0  0.5206378448489942 0.6080914765070192 0  0.5508380405137003 0.643224080836607 0  0.5661675212281623 0.6062294187827025 0  0.4111787160853603 0.5476485399432826 0  0.3739697418311935 0.5204342012781047 0  0.5871219510069361 0.6360522699265808 0  0.609895415948688 0.6102513256982105 0  0.5908545736174684 0.5719008457669744 0  0.6377246833604003 0.5773218788318328 0  0.6167225269714836 0.5396158577033705 0  0.654789449699306 0.543486536399665 0  0.6449532750753905 0.5047704478371196 0  0.6011335567507547 0.5018947738805594 0  0.6322649589368426 0.4660522702984177 0  0.5851303865282004 0.4628372043939726 0  0.6178134556875906 0.4283190668974619 0  0.5702140952405627 0.4231406552202949 0  0.6017673428902826 0.3901363681703223 0  0.5541619322684349 0.3849102837189144 0  0.5816905159747445 0.3574921166261485 0  0.5442951087581918 0.3468138641204891 0  0.5168024872320353 0.3774976192202635 0  0.5013247885665121 0.339201000254867 0  0.4801375941242251 0.3687995993188168 0  0.4655944851646444 0.3375450519560234 0  0.4402726413926348 0.358426046343203 0  0.4557714040778764 
[...]
<PointData  Scalars="v"> 
<DataArray  type="Float64"  Name="v"  format="ascii">0.0000000000000000e+00  0.0000000000000000e+00  0.0000000000000000e+00  0.0000000000000000e+00  0.0000000000000000e+00  0.0000000000000000e+00  0.0000000000000000e+00  0.0000000000000000e+00  1.8299804282891405e-05  1.7868521130504881e-05  0.0000000000000000e+00  0.0000000000000000e+00  0.0000000000000000e+00  0.0000000000000000e+00  0.0000000000000000e+00  0.0000000000000000e+00  0.0000000000000000e+00  0.0000000000000000e+00  0.0000000000000000e+00  0.0000000000000000e+00  0.0000000000000000e+00  0.0000000000000000e+00  0.0000000000000000e+00  0.0000000000000000e+00  0.0000000000000000e+00  0.0000000000000000e+00  0.0000000000000000e+00  0.0000000000000000e+00  0.0000000000000000e+00  0.0000000000000000e+00  0.0000000000000000e+00  0.0000000000000000e+00  0.0000000000000000e+00  0.0000000000000000e+00  0.0000000000000000e+00  0.0000000000000000e+00  0.0000000000000000e+00  0.0000000000000000e+00  0.0000000000000000e+00  0.0000000000000000e+00  0.0000000000000000e+00  0.0000000000000000e+00  0.0000000000000000e+00  0.0000000000000000e+00  0.0000000000000000e+00  0.0000000000000000e+00  0.0000000000000000e+00  0.0000000000000000e+00  0.0000000000000000e+00  0.0000000000000000e+00  0.0000000000000000e+00  0.0000000000000000e+00  0.0000000000000000e+00  0.0000000000000000e+00  0.0000000000000000e+00  0.0000000000000000e+00  0.0000000000000000e+00  0.0000000000000000e+00  0.0000000000000000e+00  0.0000000000000000e+00  0.0000000000000000e+00  0.0000000000000000e+00  0.0000000000000000e+00  0.0000000000000000e+00  0.0000000000000000e+00  0.0000000000000000e+00  0.0000000000000000e+00  0.0000000000000000e+00  0.0000000000000000e+00  0.0000000000000000e+00  0.0000000000000000e+00  0.0000000000000000e+00  0.0000000000000000e+00  0.0000000000000000e+00  0.0000000000000000e+00  0.0000000000000000e+00  0.0000000000000000e+00  0.0000000000000000e+00  0.0000000000000000e+00  0.0000000000000000e+00  0.0000000000000000e+00  0.0000000000000000e+00  0.0000000000000000e+00  0.0000000000000000e+00  0.0000000000000000e+00  0.0000000000000000e+00  0.0000000000000000e+00  0.0000000000000000e+00  0.0000000000000000e+00  0.0000000000000000e+00  0.0000000000000000e+00  0.0000000000000000e+00  0.0000000000000000e+00  0.0000000000000000e+00  0.0000000000000000e+00  0.0000000000000000e+00  0.0000000000000000e+00  0.0000000000000000e+00  0.0000000000000000e+00  0.0000000000000000e+00  0.0000000000000000e+00  0.0000000000000000e+00  0.0000000000000000e+00  0.0000000000000000e+00  0.0000000000000000e+00  0.0000000000000000e+00  0.0000000000000000e+00  0.0000000000000000e+00  0.0000000000000000e+00  0.0000000000000000e+00  0.0000000000000000e+00  0.0000000000000000e+00  0.0000000000000000e+00  0.0000000000000000e+00  0.0000000000000000e+00  0.0000000000000000e+00  0.0000000000000000e+00  0.0000000000000000e+00  0.0000000000000000e+00  0.0000000000000000e+00  0.0000000000000000e+00  0.0000000000000000e+00  0.0000000000000000e+00  0.0000000000000000e+00  0.0000000000000000e+00  0.0000000000000000e+00  0.0000000000000000e+00  0.0000000000000000e+00  0.0000000000000000e+00  0.0000000000000000e+00  0.0000000000000000e+00  0.0000000000000000e+00  0.0000000000000000e+00  0.0000000000000000e+00  0.0000000000000000e+00  0.0000000000000000e+00  0.0000000000000000e+00  0.0000000000000000e+00  0.0000000000000000e+00  0.0000000000000000e+00  0.0000000000000000e+00  0.0000000000000000e+00  0.0000000000000000e+00  0.0000000000000000e+00  0.0000000000000000e+00  0.0000000000000000e+00  0.0000000000000000e+00  0.0000000000000000e+00  0.0000000000000000e+00  0.0000000000000000e+00  0.0000000000000000e+00  0.0000000000000000e+00  0.0000000000000000e+00  0.0000000000000000e+00  0.0000000000000000e+00  0.0000000000000000e+00  0.0000000000000000e+00  0.0000000000000000e+00  0.0000000000000000e+00  0.0000000000000000e+00  0.0000000000000000e+00  0.0000000000000000e+00  0.0000000000000000e+00  0.0000000000000000e+00  0.0000000000000000e+00  0.0000000000000000e+00  0.0000000000000000e+00  0.0000000000000000e+00  0.0000000000000000e+00  0.0000000000000000e+00  0.0000000000000000e+00  0.0000000000000000e+00  0.0000000000000000e+00  0.0000000000000000e+00  0.0000000000000000e+00  0.0000000000000000e+00  0.0000000000000000e+00  0.0000000000000000e+00  1.7493889332589257e-05  1.7576016922572958e-05  1.7599277585156086e-05  1.7921574725666668e-05  1.8431151197369654e-05  1.8868679951123380e-05  1.9303502443289077e-05  1.9765203992198240e-05  2.0238367751650385e-05  2.0502697813296863e-05  2.0635419726527255e-05  2.0745623679979906e-05  2.0626074384914493e-05  2.0390355933541727e-05  2.0216671129443172e-05  1.9964000049287323e-05  1.9648211322122357e-05  1.9490010166333783e-05  1.9419877360031406e-05  1.9312090141324097e-05  1.9131932514873883e-05  1.9002715289012420e-05  1.9007356100965382e-05  1.9007418407863799e-05  1.9136168138632392e-05  1.9372744666332412e-05  1.9555287561935803e-05  1.9771707435063482e-05  2.0000475331873120e-05  2.0203353734155282e-05  2.0429743275605703e-05  2.0595135568422745e-05  2.0737182669071206e-05  2.0624825653235530e-05  2.0384627818890683e-05  2.0199813897131041e-05  1.9806839957443751e-05  1.9353202265472775e-05  1.9108442990541694e-05  1.8597756577542303e-05  1.8347854270371909e-05  1.8200649356871532e-05  1.8299460531646793e-05  1.8698802745741085e-05  1.9307065609319569e-05  2.0134980343266846e-05  2.1074453529695819e-05  2.2187046694638529e-05  2.3281680274152371e-05  2.4154144184725916e-05  2.5222866423086058e-05  2.5563580813206513e-05  2.5773495000367463e-05  2.5706805234349174e-05  2.5437651273437209e-05  2.4440137529973236e-05  2.3529528355104342e-05  2.2703530667864550e-05  2.1405996510719017e-05  2.0277089242267685e-05  1.9287351893743183e-05  1.8457281666911582e-05  1.6434582193215951e-05  1.6420745208705388e-05  1.9000471162485913e-05  1.5862912053380318e-05  1.6150929342967768e-05  1.8204941279079522e-05  1.6751160218656365e-05  1.6990311214175028e-05  1.7701352336931754e-05  1.7132271709506560e-05  1.7645609006175325e-05  2.1219811605705752e-05  2.2170262290235459e-05  1.7813883939196175e-05  1.7587880044434993e-05  1.8058248759291587e-05  1.7042933074226117e-05  2.2042556633780647e-05  2.0523459987618606e-05  1.9921873330079469e-05  1.6985891260055298e-05  1.6731329189475754e-05  1.7620583277195275e-05  1.7333316445088240e-05  1.7067166373420660e-05  1.7447510795896117e-05  1.6804960365816010e-05  1.5690964023266495e-05  1.6297401117745427e-05  1.7512981815856847e-05  1.6998257315048923e-05  1.6615597578266956e-05  1.7125465051292221e-05  1.6743387893043625e-05  1.7284420161810593e-05  1.7615458516941815e-05  1.7015992713458297e-05  1.7215077613427472e-05  1.6951249028120425e-05  1.7232969484401904e-05  1.7640884684901546e-05  1.7396365559837193e-05  1.7723532604527003e-05  1.7477506591855134e-05  1.7560021976863706e-05  1.7555390559890669e-05  1.7261698055927812e-05  1.7610612501846808e-05  1.7448456798607363e-05  1.7405348642927953e-05  1.7804177773047667e-05  1.7533251695662870e-05  1.7987761353620979e-05  1.7746548888619177e-05  1.8056083702446143e-05  1.8262764893461956e-05  1.7995078101167430e-05  1.7926399715770788e-05  1.7868404916963104e-05  1.7844920618996971e-05  1.7512088800270987e-05  1.7603263118402314e-05  1.7274935203659201e-05  1.7564255694747249e-05  1.8052563674221085e-05  1.8259684393743798e-05  1.8806596466922544e-05  1.9118602184012635e-05  1.9762795951288303e-05  1.9093752313010779e-05  1.9971271586359117e-05  1.9076199828616844e-05  1.9822106811453367e-05  1.7191591432192807e-05  1.7877674338514036e-05  1.8190439721641379e-05  1.8015575869225203e-05  1.7754111483442059e-05  2.0449333338928207e-05  2.0136576551869488e-05  1.9446403233328086e-05  1.6454561150202072e-05  2.0701790207834877e-05  1.7757112686896411e-05  1.6195236079612158e-05  1.7345407280613868e-05  1.7086721000048617e-05  1.7053011826795539e-05  1.7624455104385407e-05  1.7622546213564310e-05  1.9397787190486926e-05  1.7313601122612247e-05  1.7649659264731988e-05  1.7220746453106826e-05  1.7598944547586057e-05  1.8007861552027896e-05  1.7824538228493893e-05  1.7006541157355204e-05  1.9747567357708207e-05  1.9041393502278081e-05  1.7494434383607520e-05  1.7293199474715207e-05  1.7293081064290689e-05  1.6606244107930840e-05  1.6835425081823193e-05  1.6491826688003241e-05  1.6287337881799577e-05  1.7841480697431551e-05  1.8756276063326771e-05  2.0054618555994089e-05  1.6981030378858119e-05  1.7893313646405481e-05  1.6742761902435067e-05  2.0382332064196285e-05  2.0774720108885710e-05  2.0277930027038830e-05  1.7598018197906642e-05  1.7475364184419862e-05  1.7128898344878781e-05  1.7023301609637689e-05  1.6177481611436693e-05  1.6594860757596669e-05  1.8726010324823085e-05  1.7022882326619313e-05  1.6649811379341315e-05  1.8516243366766013e-05  1.8206166455677744e-05  1.6242933680040869e-05  1.8337330257339323e-05  1.8086823941794274e-05  1.6946422920093741e-05  1.7171330646237741e-05  1.7695268280043382e-05  1.8808411519672973e-05  1.7341795363757944e-05  1.6662638366916664e-05  1.7976671491354991e-05  1.7375631600797662e-05  1.8047533598281095e-05  1.8006731704601904e-05  1.7591448171013079e-05  1.7374666899208559e-05  1.7982398498281030e-05  2.2011215679583415e-05  2.1945161222496119e-05  1.9842621148691710e-05  2.0849908824595502e-05  2.0515297816701556e-05  1.9002495036439865e-05  1.8948105584843690e-05  1.9650047826957624e-05  1.9516884031085004e-05  1.7665545184584873e-05  1.7572696282078944e-05  1.7428278170907573e-05  1.7431599660780243e-05  1.7336705094068569e-05  1.6890866902595932e-05  1.6712661179236366e-05  1.6696814588693340e-05  1.6818189785046376e-05  1.7262500296654915e-05  1.7200238729433958e-05  1.7448024595167828e-05  1.7122326412374160e-05  1.6934779259010307e-05  1.5809948602943504e-05  1.5791165551529237e-05  1.7373845389922601e-05  1.7491045189052545e-05  1.7125375346078179e-05  1.8070896134078494e-05  1.8186598611846363e-05  1.7543324506774507e-05  1.6906495958248368e-05  1.7874197031304014e-05  1.6209424327042789e-05  1.6108441625568786e-05  1.7075810441957324e-05  1.5706121100311950e-05  1.6199711842846985e-05  1.6881247138482781e-05  1.6991375375346797e-05  1.8011873266979116e-05  1.8113214955688741e-05  1.6330845187481604e-05  1.7923006298197421e-05  1.6615056886723579e-05  1.7594044352508131e-05  1.7916167824805501e-05  1.8527432319100641e-05  1.7778737086146952e-05  1.7647416849364077e-05  1.7502764327629328e-05  1.8056076676844691e-05  2.0664733228066619e-05  1.6642667364525212e-05  1.5710626861228972e-05  1.6819401228881062e-05  1.6680240587222846e-05  1.7903309841005024e-05  2.0755228069546437e-05  1.8668501674874716e-05  1.7024790500805505e-05  1.7186875645309958e-05  1.6519219085763751e-05  1.6549548451062411e-05  1.8212798442604369e-05  1.7663127066311666e-05  1.7585159538100414e-05  1.6627222763958466e-05  1.7086435432373659e-05  1.7927288256308722e-05  1.5923953955796216e-05  1.8424090426711117e-05  1.8517882909195122e-05  1.8458110977639389e-05  1.7828274661280511e-05  1.6658944734823688e-05  1.7596205590107037e-05  1.6651152527105862e-05  1.7661474380599282e-05  1.6097641471230794e-05  2.1143118439733289e-05  1.7701861552611712e-05  1.7842590815915552e-05  1.8020889269471096e-05  1.5807532221490007e-05  1.7081057771194927e-05  1.7630849495461827e-05  1.7310773334816474e-05  2.1076845189482403e-05  1.7910855392101074e-05  1.7346741835998751e-05  2.0082979684797308e-05  1.6835053002156091e-05  1.7041013371334332e-05  1.7479712638068067e-05  1.7177390611955546e-05  1.8997504151917782e-05  2.0570014494952115e-05  2.0774650536593156e-05  1.7671559561054590e-05  1.7519669215240321e-05  1.7430716185475861e-05  2.0449625950674066e-05  1.7527353278790031e-05  1.9830919660879390e-05  1.7672487342599513e-05  1.6726901559756760e-05  1.7337319006922895e-05  1.7728733572445847e-05  2.0024330690231566e-05  2.9383119746027211e-05  2.1962617184106055e-05  2.0763900400856709e-05  2.1275013683403140e-05  2.2369370968031750e-05  2.7399789793563974e-05  2.0559764261304942e-05  2.2990115032089762e-05  2.7381423913242187e-05  2.1139842368621873e-05  2.1891956771544493e-05  1.9467159302235799e-05  1.9595662517344145e-05  2.0837354722566388e-05  2.0308257771031102e-05  2.0996347428989200e-05  2.3013627783863893e-05  4.0317228426611807e-06  2.3135754545128413e-05  5.7622285003896734e-06  5.8965073631821052e-06  4.1033733078505306e-06  4.5719661948281403e-06  4.1285497463049880e-06  2.2930956287845584e-05  4.0639466998225980e-06  2.2223053862955847e-05  2.1866187523758596e-05  4.1600012817093180e-06  2.3206431885257247e-05  2.2549637963137254e-05  2.2476808732482488e-05  2.5522679796607942e-05  6.1036953892377170e-06  5.9937499455852677e-06  6.0963359132511729e-06  5.5126634141613973e-06  6.5840972530515135e-06  7.9483877557497492e-06  5.4554966707603964e-06  5.1943016296267115e-06  6.6481220745031216e-06  5.6424388176731312e-06  5.7483104687094417e-06  6.8019400478033271e-06  2.6636658186706179e-06  3.1044302256240652e-06  2.6026123477802193e-06  4.2430056413769732e-06  2.4429350161986715e-06  2.5284921533485213e-06  2.6391695914377636e-06  4.4742463259940360e-06  2.0472911941037367e-05  2.0403107318941688e-05  2.0938848457760913e-05  1.9311062292755100e-05  1.8942897407540182e-05  1.9681852417739462e-05  1.7231886191050502e-05  1.7232540535098418e-05  1.4817374120266727e-05  1.4615283832740809e-05  1.6784551901622236e-05  1.4378163788296372e-05  1.6779959428025586e-05  1.4196848141257608e-05  1.6147361254941603e-05  1.3910338484734132e-05  1.5887824708396950e-05  1.3095553930833532e-05  1.5352957559752652e-05  1.2758219466896571e-05  1.4374512983364996e-05  1.6776449404742661e-05  1.5454030930860004e-05  1.7947070847716450e-05  1.6139741338072739e-05  1.1567456073804158e-05  1.9013893537223276e-05  1.6682616918017231e-05  1.3930082358592489e-05  1.1673298602282088e-05  1.9153274940563010e-05  1.6856086206888435e-05  1.9641218838218851e-05  1.6785157233830678e-05  1.9613751276327448e-05  1.6355020736103158e-05  1.8641381917928841e-05  1.7999695146321617e-05  9.8664642820741020e-06  8.6479482675722467e-06  1.5506039365759140e-05  9.8763692651790185e-06  1.8836295404753821e-05  1.2111265021908136e-05  1.5612886199665543e-05  1.8178332261552972e-05  1.3923267348315446e-05  1.4480554837552723e-05  1.6662378023280790e-05  1.2886644075433402e-05  1.5136175261515745e-05  1.8240908350204083e-05  1.7474466135909317e-05  1.3467266250262636e-05  1.5709975140676342e-05  1.8589072355971025e-05  1.7232649979756379e-05  1.4246086806591709e-05  1.5468222629361959e-05  1.2743608374608418e-05  1.4056797392248440e-05  1.6917259106084150e-05  1.5018200104853222e-05  1.7617282299872136e-05  1.6172181006692199e-05  1.3420883611328919e-05  1.4057262562039071e-05  1.6188716494314869e-05  1.4131771174487482e-05  1.6253757101849335e-05  1.1578858888905747e-05  1.3889084540472679e-05  1.6393004676227254e-05  1.3089780390644058e-05  1.4987540395132091e-05  1.7981617102690020e-05  1.1233842184900407e-05  2.1662559110234670e-05  1.1641201930074547e-05  1.3511259881333441e-05  1.6680240132607900e-05  1.5289496548109164e-05  1.8630669984955735e-05  1.6972901244731275e-05  1.3433160713817698e-05  1.5390358993221506e-05  1.8524141200067132e-05  1.7304413956612362e-05  9.3972837900903857e-06  1.0849769017651659e-05  1.9399856435391737e-05  1.0904728928276015e-05  2.1127275096250578e-05  1.9741599424808637e-05  2.0058905178894635e-05  1.8179886682750965e-05  2.0911750606901138e-05  1.9564570332463763e-05  1.6122263048330018e-05  1.7042440609220987e-05  1.9841950381587310e-05  1.7630588971247490e-05  2.0127831988834556e-05  1.8271512557895665e-05  1.5362000203990555e-05  1.5617938806906017e-05  1.7930925669497806e-05  1.5558131711859564e-05  1.7492496154383503e-05  1.5197602899159454e-05  1.6870015903948520e-05  1.4687751987400682e-05  1.6079321304903703e-05  1.3845899458626163e-05  1.5001428230121393e-05  1.2149454166283493e-05  1.1184920955884773e-05  1.2527602717510658e-05  9.5826806651605240e-06  1.7170691009155440e-05  1.5942514011402771e-05  1.3490381401961588e-05  1.4568825828143998e-05  1.1587831367808044e-05  1.8966622590300862e-05  1.2214508528950835e-05  1.4865468243996142e-05  1.2758772662729866e-05  1.5494362674549458e-05  1.3328857662113557e-05  1.8121200858934094e-05  1.0392716444775479e-05  1.6443870820208008e-05  1.4055367761706210e-05  8.5446259381021939e-06  1.6932406616974422e-05  1.5361169630057838e-05  1.8021554435596794e-05  1.5797650299766942e-05  1.9027109923117235e-05  1.6395661971029500e-05  1.9616051229089062e-05  1.6997475922290299e-05  2.0687066083787368e-05  1.7333855729896385e-05  2.0446081943813867e-05  1.7064076488802340e-05  2.0178540891361925e-05  1.6574344122666141e-05  1.9484946859384032e-05  2.2830154920770551e-05  2.1722516715882006e-05  1.8197164201282110e-05  1.9990627422652329e-05  1.6256981063820726e-05  1.7478667806514986e-05  2.0860530979375994e-05  1.7898590435413415e-05  2.0989279532608420e-05  1.7630340006685176e-05  2.0550321952164338e-05  2.3474763187955344e-05  1.3830711994554329e-05  1.6611148381327696e-05  1.9623601703299986e-05  2.3113190218200651e-05  2.2267504461735468e-05  1.8254973714620962e-05  2.0075849295724602e-05  1.6333066737839868e-05  1.8367913249972636e-05  1.1990710627862678e-05  2.4900646600599566e-05  1.2473820011259123e-05  2.5881711657526388e-05  8.8174472419366027e-06  1.0317650536814611e-05  2.3294350863160355e-05  7.1632730926339346e-06  1.3176357121606288e-05  1.1044748236903364e-05  1.3540169732652354e-05  2.1864765937806075e-05  1.9196840259667361e-05  1.9695516020781820e-05  1.4574000058714409e-05  1.2591560595559055e-05  1.3641943645249692e-05  1.8721955424959243e-05  1.0857924560381454e-05  2.0623232476320033e-05  2.7581532376411912e-05  2.8141715300522776e-05  2.6579911289953170e-05  1.7320464562110596e-05  2.5317451859072716e-05  2.6039352488705056e-05  1.2985933755334156e-05  2.0990084222640679e-05  1.4537247000747775e-05  2.0792885804726360e-05  2.1367898414266332e-05  2.0335819940409156e-05  1.7151819050560880e-05  7.0504857954592070e-06  5.6250615412871847e-06  1.9155705944107074e-05  1.9732239153807760e-05  1.8832642471559584e-05  1.2370081599457831e-05  1.1857493629044382e-05  2.1030792036672793e-05  2.0168374352371131e-05  2.0928136164887102e-05  2.0151666335324656e-05  1.9575724204396472e-05  2.0814560531637857e-05  2.1431179007355924e-05  1.9994146918795864e-05  2.1083970929045979e-05  1.9896532616019184e-05  2.1879254792891231e-05  2.1935970111682760e-05  2.1447664015002362e-05  8.7920762322852428e-06  1.9734090262070978e-05  1.8212528156875742e-05  2.1981942490858204e-05  2.2850103785648251e-05  2.1255827761102455e-05  2.0012270684065641e-05  1.3737822931163454e-05  2.9421798615259872e-05  2.8557877346934023e-05  9.7453343335770882e-06  1.2037921244260471e-05  9.2937696920292714e-06  8.7042697066104184e-06  7.9019144215381821e-06  8.0762829146133778e-06  9.5557526537124167e-06  9.1225117687347509e-06  1.9974058420486529e-05  2.7352514043907529e-05  2.8195418995435627e-05  2.6590527710948552e-05  2.7009545377203703e-05  2.8717432078789194e-05  2.1389252275905967e-05  2.2827687875018726e-05  1.7754256158900477e-05  1.8789324583615234e-05  1.8435957438040659e-05  2.0250333124741663e-05  1.9236820750342937e-05  2.1921569860555919e-05  2.0034089159814133e-05  5.8786913313141952e-06  2.0334405534453666e-05  2.0142433264089805e-05  2.0388944693951848e-05  1.9001437291239501e-05  1.0671163821717832e-05  2.0944174370726064e-05  2.0665328404474756e-05  2.1537234581925025e-05  2.0655672606396230e-05  8.6599299831940738e-06  2.1999960017973057e-05  1.9821120760546134e-05  2.2040858203010107e-05  2.1999881534119353e-05  2.2360281942343966e-05  2.3512188756631444e-05  2.1632597887287678e-05  2.1652616833730814e-05  2.1406084924591757e-05  2.1094173235860642e-05  2.9130557628650090e-05  2.1504161834316116e-05  2.2850710247305549e-05  2.2678645565467723e-05  2.4558614323043310e-05  2.4619570706442315e-05  2