<?xml version="1.0"?>
<VTKFile type="UnstructuredGrid"  version="0.1"  >
<UnstructuredGrid>
<Piece  NumberOfPoints="1183" NumberOfCells="2268">
<Points>
<DataArray  type="Float64"  NumberOfComponents="3"  format="ascii">0 0 0  0 1 0  1 1 0  1 0 0  1.1 -0.1 0  -0.1 -0.1 0  1.1 1.1 0  -0.1 1.1 0  0.5001907942797842 0.5001424792557062 0  0.2394388717784185 0.5458585445431327 0  0 0.9499999999997918 0  0 0.8999999999995836 0  0 0.8499999999996529 0  0 0.7999999999999998 0  0 0.7500000000003466 0  0 0.7000000000006934 0  0 0.6500000000010401 0  0 0.6000000000013869 0  0 0.5500000000017335 0  0 0.5000000000020587 0  0 0.4500000000018723 0  0 0.4000000000016644 0  0 0.3500000000014564 0  0 0.3000000000012483 0  0 0.2500000000010403 0  0 0.2000000000008322 0  0 0.1500000000006241 0  0 0.100000000000416 0  0 0.05000000000020799 0  0.04999999999989965 0 0  0.09999999999981467 0 0  0.1499999999997036 0 0  0.1999999999995579 0 0  0.2499999999994121 0 0  0.2999999999992664 0 0  0.3499999999991206 0 0  0.3999999999989749 0 0  0.4499999999988292 0 0  0.4999999999986943 0 0  0.5499999999988151 0 0  0.5999999999989468 0 0  0.6499999999990784 0 0  0.69999999999921 0 0  0.7499999999993417 0 0  0.7999999999994734 0 0  0.8499999999996051 0 0  0.8999999999997368 0 0  0.9499999999998684 0 0  1 0.04999999999989965 0  1 0.09999999999981467 0  1 0.1499999999997036 0  1 0.1999999999995579 0  1 0.2499999999994121 0  1 0.2999999999992664 0  1 0.3499999999991206 0  1 0.3999999999989749 0  1 0.4499999999988292 0  1 0.4999999999986943 0  1 0.5499999999988151 0  1 0.5999999999989468 0  1 0.6499999999990784 0  1 0.69999999999921 0  1 0.7499999999993417 0  1 0.7999999999994734 0  1 0.8499999999996051 0  1 0.8999999999997368 0  1 0.9499999999998684 0  0.9499999999997918 1 0  0.8999999999995836 1 0  0.8499999999996529 1 0  0.7999999999999998 1 0  0.7500000000003466 1 0  0.7000000000006934 1 0  0.6500000000010401 1 0  0.6000000000013869 1 0  0.5500000000017335 1 0  0.5000000000020587 1 0  0.4500000000018723 1 0  0.4000000000016644 1 0  0.3500000000014564 1 0  0.3000000000012483 1 0  0.2500000000010403 1 0  0.2000000000008322 1 0  0.1500000000006241 1 0  0.100000000000416 1 0  0.05000000000020799 1 0  -0.1 1.05000000000004 0  -0.1 1.000000000000079 0  -0.1 0.9500000000001624 0  -0.1 0.9000000000003032 0  -0.1 0.850000000000444 0  -0.1 0.8000000000005848 0  -0.1 0.7500000000007256 0  -0.1 0.7000000000008665 0  -0.1 0.6500000000010508 0  -0.1 0.6000000000012352 0  -0.1 0.5500000000014196 0  -0.1 0.500000000001539 0  -0.1 0.4500000000014195 0  -0.1 0.4000000000013 0  -0.1 0.3500000000011588 0  -0.1 0.3000000000010178 0  -0.1 0.2500000000008986 0  -0.1 0.2000000000007579 0  -0.1 0.1500000000006174 0  -0.1 0.1000000000005272 0  -0.1 0.05000000000040083 0  -0.1 2.671196597248127e-13 0  -0.1 -0.0499999999998666 0  -0.0500000000000906 -0.1 0  -1.730560139634463e-13 -0.1 0  0.04999999999975802 -0.1 0  0.09999999999961506 -0.1 0  0.1499999999994613 -0.1 0  0.199999999999302 -0.1 0  0.2499999999991446 -0.1 0  0.2999999999990088 -0.1 0  0.3499999999988296 -0.1 0  0.3999999999986936 -0.1 0  0.4499999999985143 -0.1 0  0.4999999999984002 -0.1 0  0.5499999999985247 -0.1 0  0.5999999999986493 -0.1 0  0.6499999999987955 -0.1 0  0.6999999999989417 -0.1 0  0.7499999999990659 -0.1 0  0.7999999999992116 -0.1 0  0.8499999999993573 -0.1 0  0.8999999999994526 -0.1 0  0.949999999999584 -0.1 0  0.9999999999997226 -0.1 0  1.049999999999861 -0.1 0  1.1 -0.0500000000000906 0  1.1 -1.730560139634463e-13 0  1.1 0.04999999999975802 0  1.1 0.09999999999961506 0  1.1 0.1499999999994613 0  1.1 0.199999999999302 0  1.1 0.2499999999991446 0  1.1 0.2999999999990088 0  1.1 0.3499999999988296 0  1.1 0.3999999999986936 0  1.1 0.4499999999985143 0  1.1 0.4999999999984002 0  1.1 0.5499999999985247 0  1.1 0.5999999999986493 0  1.1 0.6499999999987955 0  1.1 0.6999999999989417 0  1.1 0.7499999999990659 0  1.1 0.7999999999992116 0  1.1 0.8499999999993573 0  1.1 0.8999999999994526 0  1.1 0.949999999999584 0  1.1 0.9999999999997226 0  1.1 1.049999999999861 0  1.05000000000004 1.1 0  1.000000000000079 1.1 0  0.9500000000001624 1.1 0  0.9000000000003032 1.1 0  0.850000000000444 1.1 0  0.8000000000005848 1.1 0  0.7500000000007256 1.1 0  0.7000000000008665 1.1 0  0.6500000000010508 1.1 0  0.6000000000012352 1.1 0  0.5500000000014196 1.1 0  0.500000000001539 1.1 0  0.4500000000014195 1.1 0  0.4000000000013 1.1 0  0.3500000000011588 1.1 0  0.3000000000010178 1.1 0  0.2500000000008986 1.1 0  0.2000000000007579 1.1 0  0.1500000000006174 1.1 0  0.1000000000005272 1.1 0  0.05000000000040083 1.1 0  2.671196597248127e-13 1.1 0  -0.0499999999998666 1.1 0  0.2468698418351475 0.5748981713547502 0  0.2592022653227397 0.6020047501615469 0  0.2749508027239336 0.6272752789964771 0  0.294319780429723 0.6497722582430078 0  0.3168026847527612 0.6689494384835394 0  0.3407270852163303 0.6861781102292684 0  0.3657826026513812 0.7017657041160601 0  0.3921501236318445 0.715102740446084 0  0.4196114290308743 0.7260141366085334 0  0.4479519909697851 0.7345354273177293 0  0.4769389247876589 0.7404791338849812 0  0.5062564771101661 0.7441507925514776 0  0.5359037460356005 0.7453546416446117 0  0.5655665740743524 0.7422817969104245 0  0.594269934755857 0.7341939026623029 0  0.6217011629152595 0.7223898131183739 0  0.647271902800048 0.7071286718464814 0  0.6705212778073074 0.6884838784107987 0  0.6912854118574878 0.6671466455526562 0  0.7091620767940119 0.6434105920882645 0  0.7236451679174879 0.6173723083590281 0  0.734734565883013 0.5896947613637417 0  0.7422559419902064 0.5608850838498181 0  0.7452420541841359 0.5312279617868525 0  0.7440240712660369 0.5015654011577466 0  0.7400636113283785 0.4721592871095328 0  0.7335101631174268 0.4433146022280397 0  0.7242957489346209 0.4152107490331649 0  0.7129293646632853 0.3879390425657402 0  0.699495260227639 0.3616386308239271 0  0.6837924767452721 0.3366518289431476 0  0.6662177238243738 0.3130059793458331 0  0.6465716874786351 0.2908936470457352 0  0.6236725099342856 0.2719834952564172 0  0.5980046629502489 0.2568691635869984 0  0.5705117270376623 0.2453541503292825 0  0.5413322963331308 0.2385641356953176 0  0.5114634642831707 0.2390763291797582 0  0.4824653417143457 0.245351959165543 0  0.4543139237023148 0.254394131577337 0  0.4270740639949192 0.2659475883873622 0  0.4013412035580949 0.2802841541525719 0  0.3766746649726893 0.2964708517449748 0  0.3533496276714667 0.314606320705644 0  0.3316398899831867 0.3346770368675268 0  0.3117922474840816 0.3565196591989528 0  0.2938361823411605 0.3799827026237306 0  0.2779821883727174 0.4049033449465632 0  0.2641348265499948 0.4309796467753441 0  0.2531728561034284 0.4584320556554739 0  0.2448738712263456 0.4868464165343648 0  0.2393688090488051 0.5159446524404459 0  0.2635335299125056 0.5067242769376201 0  0.320616871843159 0.6404315702840799 0  0.5017504415093964 0.2688202836451781 0  0.6385416598759859 0.3171474322503375 0  0.3899242005516436 0.6863989911062747 0  0.685010476382518 0.3864232357783434 0  0.7114181374402153 0.4636148754363736 0  0.7141659846832061 0.5719244839994604 0  0.6596382014528165 0.6628743322801171 0  0.5783687627577652 0.7155784879696583 0  0.4677697829820812 0.7120046587262635 0  0.427521580710899 0.2955656183024907 0  0.3587637079792335 0.342940688632777 0  0.3072007787779408 0.4048068378563432 0  0.5751971400965611 0.2734910499066723 0  0.2751983271163051 0.577832677481507 0  0.2818423238934807 0.4532348021577946 0  0.6946577502151371 0.614812417814698 0  0.6198830318146332 0.6928200261243395 0  0.7190528880388142 0.5185347090756313 0  0.5219676825880519 0.7197571331764494 0  0.4022952493872932 0.3097667148720294 0  0.4277957198550017 0.3248630813143062 0  0.4540872190243836 0.3091724145118417 0  0.4558406828014985 0.3392686815562924 0  0.427271497183005 0.3547991973049811 0  0.4556068434053021 0.366285290327776 0  0.431342260736791 0.3921869366345605 0  0.483875020476272 0.3556865477483601 0  0.4835273676466944 0.3962613784013759 0  0.5246131899249724 0.3646535866229801 0  0.447198293579989 0.4307624277805759 0  0.4081550925334432 0.434399589918069 0  0.5205291849766166 0.3276707230590195 0  0.5598809592974704 0.3535391540708892 0  0.5761318374031482 0.3854610248199312 0  0.5549116417141755 0.3128430197948097 0  0.4366579106967924 0.4789400013634024 0  0.3657584727374978 0.472855885363034 0  0.3947974262041958 0.5226993255167511 0  0.3445862045228522 0.5187504086052259 0  0.3613073557692478 0.5684694006835888 0  0.4116269313875019 0.5701329543347823 0  0.3882090491450652 0.606650576542601 0  0.4290423903385853 0.617863598737085 0  0.459125108626558 0.5784091864701122 0  0.4673991526423686 0.6229240954619458 0  0.506723054799892 0.5932688867417852 0  0.5273931489782867 0.6264025217298473 0  0.5585923490806335 0.6011223212529859 0  0.5838717274218466 0.6362487601949545 0  0.6039697633247053 0.6060645360429858 0  0.5976096547577292 0.563926444580638 0  0.632485864786571 0.5646901406498989 0  0.6282404408321165 0.5233627741746647 0  0.5491276220577876 0.6709366528686478 0  0.6172727404386269 0.6371422520235229 0  0.4434293868504621 0.656611390215412 0  0.4892080184492901 0.6716564354312291 0  0.6060570181907018 0.3628676338211461 0  0.6065046983600584 0.4065359122885147 0  0.5856305723179523 0.4349809086191882 0  0.6330692158806184 0.3758975531676103 0  0.594799240215386 0.3306480806288818 0  0.582055660478682 0.5135583038641602 0  0.6242887926419567 0.4499383453834868 0  0.6496833417746164 0.4302417982712823 0  0.6586303008592631 0.4596350561889854 0  0.6785423124260628 0.4338458132799154 0  0.3981558869491177 0.368865474948696 0  0.4021790367023237 0.6397833563085392 0  0.3692057898499573 0.6402066209494119 0  0.3545825222224476 0.6102078856211192 0  0.3287509714524215 0.5767114205510486 0  0.6704843970369471 0.5357906388635668 0  0.6735950947212145 0.570726269587024 0  0.6415880825619729 0.6138742192810603 0  0.5978361565068656 0.6679471558084296 0  0.3248849172652108 0.4755647031173423 0  0.3476236627388578 0
[...]
<PointData  Scalars="v"> 
<DataArray  type="Float64"  Name="v"  format="ascii">0.0000000000000000e+00  0.0000000000000000e+00  0.0000000000000000e+00  0.0000000000000000e+00  0.0000000000000000e+00  0.0000000000000000e+00  0.0000000000000000e+00  0.0000000000000000e+00  3.8100179135086306e-05  2.2541410829084558e-05  0.0000000000000000e+00  0.0000000000000000e+00  0.0000000000000000e+00  0.0000000000000000e+00  0.0000000000000000e+00  0.0000000000000000e+00  0.0000000000000000e+00  0.0000000000000000e+00  0.0000000000000000e+00  0.0000000000000000e+00  0.0000000000000000e+00  0.0000000000000000e+00  0.0000000000000000e+00  0.0000000000000000e+00  0.0000000000000000e+00  0.0000000000000000e+00  0.0000000000000000e+00  0.0000000000000000e+00  0.0000000000000000e+00  0.0000000000000000e+00  0.0000000000000000e+00  0.0000000000000000e+00  0.0000000000000000e+00  0.0000000000000000e+00  0.0000000000000000e+00  0.0000000000000000e+00  0.0000000000000000e+00  0.0000000000000000e+00  0.0000000000000000e+00  0.0000000000000000e+00  0.0000000000000000e+00  0.0000000000000000e+00  0.0000000000000000e+00  0.0000000000000000e+00  0.0000000000000000e+00  0.0000000000000000e+00  0.0000000000000000e+00  0.0000000000000000e+00  0.0000000000000000e+00  0.0000000000000000e+00  0.0000000000000000e+00  0.0000000000000000e+00  0.0000000000000000e+00  0.0000000000000000e+00  0.0000000000000000e+00  0.0000000000000000e+00  0.0000000000000000e+00  0.0000000000000000e+00  0.0000000000000000e+00  0.0000000000000000e+00  0.0000000000000000e+00  0.0000000000000000e+00  0.0000000000000000e+00  0.0000000000000000e+00  0.0000000000000000e+00  0.0000000000000000e+00  0.0000000000000000e+00  0.0000000000000000e+00  0.0000000000000000e+00  0.0000000000000000e+00  0.0000000000000000e+00  0.0000000000000000e+00  0.0000000000000000e+00  0.0000000000000000e+00  0.0000000000000000e+00  0.0000000000000000e+00  0.0000000000000000e+00  0.0000000000000000e+00  0.0000000000000000e+00  0.0000000000000000e+00  0.0000000000000000e+00  0.0000000000000000e+00  0.0000000000000000e+00  0.0000000000000000e+00  0.0000000000000000e+00  0.0000000000000000e+00  0.0000000000000000e+00  0.0000000000000000e+00  0.0000000000000000e+00  0.0000000000000000e+00  0.0000000000000000e+00  0.0000000000000000e+00  0.0000000000000000e+00  0.0000000000000000e+00  0.0000000000000000e+00  0.0000000000000000e+00  0.0000000000000000e+00  0.0000000000000000e+00  0.0000000000000000e+00  0.0000000000000000e+00  0.0000000000000000e+00  0.0000000000000000e+00  0.0000000000000000e+00  0.0000000000000000e+00  0.0000000000000000e+00  0.0000000000000000e+00  0.0000000000000000e+00  0.0000000000000000e+00  0.0000000000000000e+00  0.0000000000000000e+00  0.0000000000000000e+00  0.0000000000000000e+00  0.0000000000000000e+00  0.0000000000000000e+00  0.0000000000000000e+00  0.0000000000000000e+00  0.0000000000000000e+00  0.0000000000000000e+00  0.0000000000000000e+00  0.0000000000000000e+00  0.0000000000000000e+00  0.0000000000000000e+00  0.0000000000000000e+00  0.0000000000000000e+00  0.0000000000000000e+00  0.0000000000000000e+00  0.0000000000000000e+00  0.0000000000000000e+00  0.0000000000000000e+00  0.0000000000000000e+00  0.0000000000000000e+00  0.0000000000000000e+00  0.0000000000000000e+00  0.0000000000000000e+00  0.0000000000000000e+00  0.0000000000000000e+00  0.0000000000000000e+00  0.0000000000000000e+00  0.0000000000000000e+00  0.0000000000000000e+00  0.0000000000000000e+00  0.0000000000000000e+00  0.0000000000000000e+00  0.0000000000000000e+00  0.0000000000000000e+00  0.0000000000000000e+00  0.0000000000000000e+00  0.0000000000000000e+00  0.0000000000000000e+00  0.0000000000000000e+00  0.0000000000000000e+00  0.0000000000000000e+00  0.0000000000000000e+00  0.0000000000000000e+00  0.0000000000000000e+00  0.0000000000000000e+00  0.0000000000000000e+00  0.0000000000000000e+00  0.0000000000000000e+00  0.0000000000000000e+00  0.0000000000000000e+00  0.0000000000000000e+00  0.0000000000000000e+00  0.0000000000000000e+00  0.0000000000000000e+00  0.0000000000000000e+00  0.0000000000000000e+00  0.0000000000000000e+00  0.0000000000000000e+00  0.0000000000000000e+00  0.0000000000000000e+00  0.0000000000000000e+00  0.0000000000000000e+00  0.0000000000000000e+00  0.0000000000000000e+00  0.0000000000000000e+00  0.0000000000000000e+00  0.0000000000000000e+00  2.1196267220573955e-05  2.2178471194720947e-05  2.4779534140708143e-05  2.8414717538902796e-05  3.2622632224159811e-05  3.6914590572509427e-05  4.0736936102867027e-05  4.3659025254027666e-05  4.5508194693187372e-05  4.6038817110548286e-05  4.5579674906930830e-05  4.4111184254037692e-05  4.2067869022402456e-05  3.9860571251937519e-05  3.8042646695673472e-05  3.6395225986882663e-05  3.5428579522029832e-05  3.4985600297854595e-05  3.4905120575996255e-05  3.5717575319815799e-05  3.7268679702287207e-05  3.9174540326733559e-05  4.1083683282424808e-05  4.3095488534278596e-05  4.4950856693747695e-05  4.5845164803747173e-05  4.6280456667267387e-05  4.5339458075038629e-05  4.3386103178603791e-05  4.0290523817467079e-05  3.6333429981715122e-05  3.2043749430307422e-05  2.7783688433921769e-05  2.4198707340033372e-05  2.1758566873211933e-05  2.1217507834998239e-05  2.2730137170688034e-05  2.6372065463294420e-05  3.1501122367048611e-05  3.7627104189312550e-05  4.3498996628613048e-05  4.9010046575196194e-05  5.3321977935954221e-05  5.6052458176162163e-05  5.6856895422213013e-05  5.5861272288681327e-05  5.2786059379979726e-05  4.8312748983528458e-05  4.2751287677702363e-05  3.6714975085728809e-05  3.0921582173428393e-05  2.5979849712861426e-05  2.5550601992038782e-05  2.7186296399167387e-05  2.6258812612286276e-05  2.6825443295700926e-05  3.6233716978513144e-05  3.6150861880101411e-05  3.9275329711973035e-05  3.5039322325157587e-05  3.1525667073101815e-05  3.4213815537149632e-05  3.9007435729985372e-05  3.8956328659407026e-05  4.6853733170962296e-05  4.2513621213769340e-05  2.0855786423539523e-05  2.0874055612974983e-05  3.4546466811358887e-05  3.2816508029074686e-05  3.2033521752038827e-05  3.7887657956549071e-05  3.7248584502967951e-05  4.2939454385552130e-05  3.9668413381336486e-05  3.5770939616376192e-05  3.7719232926452522e-05  4.0850625949832213e-05  3.8847501719782367e-05  4.0529763787665958e-05  3.6002854458255641e-05  3.7466423444855152e-05  3.3521176973979301e-05  3.9089646610638844e-05  3.9793535251714611e-05  3.0810197519880807e-05  3.1311445355450698e-05  3.3759739770116956e-05  2.6862355074705401e-05  3.7311266331891670e-05  3.6436931139340350e-05  3.4565713242380669e-05  3.1798724264607031e-05  3.0905616074948390e-05  3.4690413641078775e-05  3.3400436361423963e-05  3.6341701571890084e-05  3.7117731844833172e-05  3.7846935708438348e-05  3.7586594539856287e-05  3.7728606465088051e-05  3.6940786878913498e-05  3.6043517483750844e-05  3.6162164796007417e-05  3.7129444840342550e-05  3.7052805199729060e-05  3.8031307708921815e-05  3.6469654339655972e-05  3.4465678110001510e-05  3.7691940043046309e-05  3.8197586442981613e-05  3.1582838770478376e-05  3.5460078690342765e-05  3.6621299524189828e-05  3.3091771296002360e-05  2.7741682135747103e-05  3.7861133169471526e-05  3.7818109107028489e-05  3.7354655876223065e-05  3.8398261468951586e-05  3.7776832488106939e-05  4.2829840121903502e-05  3.5084166486088152e-05  3.2077459606022740e-05  3.0203746476674546e-05  2.7560497102775935e-05  3.7459855887622685e-05  3.5716178219753511e-05  3.4508096119349271e-05  3.3982031493515594e-05  3.4350081752432109e-05  3.9529101437098976e-05  2.9261494098917969e-05  4.2618536856959913e-05  3.5830591048099488e-05  3.3142358212845815e-05  3.1256562846341990e-05  2.8852036746004010e-05  2.4539248614018902e-05  2.6351475775936134e-05  3.8106389231013608e-05  4.2491256036627457e-05  3.8504664956009834e-05  3.7836349451651469e-05  3.8392063913435844e-05  3.6047154976761082e-05  3.7547576733911467e-05  3.8482516226524020e-05  3.7520227820663904e-05  3.0508327093517839e-05  3.8078158538920555e-05  3.3603381667584131e-05  3.0151075277300113e-05  2.9347241235664405e-05  4.6792414126774114e-05  4.3886075042789500e-05  3.3550390677141010e-05  4.5302499309840199e-05  4.1796155119663944e-05  3.8623125784873632e-05  3.8102829866344312e-05  3.6491486585840170e-05  3.9186308669171549e-05  4.2118891206716395e-05  2.9857328038545762e-05  3.6901148213103768e-05  3.6697082032853408e-05  3.2785773604108018e-05  3.2404496093422713e-05  3.3393929455237930e-05  3.1796426004816416e-05  3.4588910398258619e-05  3.1690670288385848e-05  3.9170571362929638e-05  3.6334684967804822e-05  2.2229014724075298e-05  2.2107913720588724e-05  2.4645312203803478e-05  3.3649580403224054e-05  3.4251371334028896e-05  3.8885481360990616e-05  4.5648079666287111e-05  3.4793312096296774e-05  3.6551329024096979e-05  2.4225089144244672e-05  2.3782926870487957e-05  2.1055042301704133e-05  2.4880369973343241e-05  3.8396275044912515e-05  2.4534347999474675e-05  3.5864615708761036e-05  2.4290855820631159e-05  2.1071914856718856e-05  3.7585484671453145e-05  3.8152635577865040e-05  3.7659455949031473e-05  3.6336444122814052e-05  3.7727706023412754e-05  3.5715414060452089e-05  3.6992893984518867e-05  4.3400619052472882e-05  2.9252562985453890e-05  3.4494882122029270e-05  3.0787088405436599e-05  3.5590823529987249e-05  2.7402456449076642e-05  2.2922146859467277e-05  3.1971442423632394e-05  3.8431585225793172e-05  2.3756500303442146e-05  3.4183164837182235e-05  3.7982060287242277e-05  2.7403501133226680e-05  2.8919136492222380e-05  3.4212954145063127e-05  3.1869884783142506e-05  3.5760239934662968e-05  4.4069128925032665e-05  2.2716064837196258e-05  3.5447274022670624e-05  2.7957396856150651e-05  3.7869773681271460e-05  3.8221928171643614e-05  2.9951247196556649e-05  4.0750274732584109e-05  3.7770763580772741e-05  2.5405683415895549e-05  3.0559010592879015e-05  3.6772531512199040e-05  3.6532075549389968e-05  3.3794719555334345e-05  2.6335863490853657e-05  3.3723725390981673e-05  2.8309034130390008e-05  3.7138103182961899e-05  3.7072786369674740e-05  3.9050903285753765e-05  3.2434513506237703e-05  3.8292854131352802e-05  3.6223662576150624e-05  2.8824141508633740e-05  4.1512893257745025e-05  3.3450039663536364e-05  3.3934756516967585e-05  6.4408219622948609e-05  3.3114466837861312e-05  3.8283770436400040e-05  5.7623686605357443e-05  2.4309419460376400e-05  4.7026058054934097e-05  4.7276916812297005e-05  2.5076149069510528e-05  5.2955557688978856e-05  2.3106004036176458e-05  2.3001035098620437e-05  4.0563938577768129e-05  4.5382721112424046e-05  4.1985677023329189e-05  8.9070145448471327e-06  4.6646437724343216e-05  5.2079720040272802e-05  5.1430816350738291e-05  5.4555118518225804e-06  5.7833993813320544e-06  3.7624761657764885e-05  4.9078183345946938e-06  3.5240805359169010e-06  5.1664922479184589e-06  3.6546841004297141e-06  3.2233633945146901e-05  9.3944726899112321e-06  8.5961540109323290e-06  8.2859076479077805e-06  7.9650096470948862e-06  7.1664616075181200e-06  6.5012594702464913e-06  3.2092910484201377e-06  7.1759840297874721e-06  3.4086279174309714e-06  4.6099601759881715e-06  3.5763624276844369e-06  9.3125519767147508e-06  8.3350682996205951e-06  7.5988257376999995e-06  3.3257207102178020e-06  3.1363485794842230e-06  2.9458727780784490e-06  6.2263538962424690e-06  3.2326108885840998e-06  3.9888959015322335e-06  3.0134698681840526e-06  4.5294163133005302e-06  2.5578603428200740e-05  2.3517162941357163e-05  2.6385213153226730e-05  2.2774697735907679e-05  2.5266709763137069e-05  2.1032074085088366e-05  1.9444650740314850e-05  1.8331132496454693e-05  1.6177730326005686e-05  1.5641495746633331e-05  1.8426773631082894e-05  1.6133621360050580e-05  1.9584382720916483e-05  1.7317546112283596e-05  2.1279406137739075e-05  1.8708615663485465e-05  2.3087541054162093e-05  1.9710101328557100e-05  2.4183390110510439e-05  2.0101451210044435e-05  2.4034528626194698e-05  2.8945425435381936e-05  2.7890073261977819e-05  1.4851079597297500e-05  1.9235823205854261e-05  1.5843353644683782e-05  3.3383683404396118e-05  3.1261936289680848e-05  2.5362825589628924e-05  3.6872047469983892e-05  3.3814678213059110e-05  4.0651409108992804e-05  3.5176190312405812e-05  4.0808509629165304e-05  3.5262277360692894e-05  4.0368522010518738e-05  3.3925282912483586e-05  3.7895098589880355e-05  1.4622036552243430e-05  3.1127111992660827e-05  3.4995060754175439e-05  2.7906599842221040e-05  3.1486781540449819e-05  2.5992564856223652e-05  2.9207434652535582e-05  3.4102454863387319e-05  1.3087977367665548e-05  1.1684227601766007e-05  1.2354181891416732e-05  1.7779200934445576e-05  1.3641470434482278e-05  1.5263332694670203e-05  2.4438126518417110e-05  2.7756641220207235e-05  3.3776778718058674e-05  3.0016718143244567e-05  2.4325458848945529e-05  2.6650735411382575e-05  2.1094473047199937e-05  2.3424516848226416e-05  2.8377650448212974e-05  2.4924614143769142e-05  2.9280079867859187e-05  2.5700215638368901e-05  2.1321556950163317e-05  2.1912779901037986e-05  2.6634332752502872e-05  2.2060311365425002e-05  2.5927159165733942e-05  2.1247127599848519e-05  2.5244632299974126e-05  1.7599105937053995e-05  2.9881708055753214e-05  2.9246171602261851e-05  1.9717090501413209e-05  1.7602288223131612e-05  3.3221891590253002e-05  3.3220678991920953e-05  1.7993087185635588e-05  3.4475237745021144e-05  3.3367232855821323e-05  2.8192446774572535e-05  3.2460738345722836e-05  2.6155249076285201e-05  3.0499881387973403e-05  2.3235607751254596e-05  2.7553018949290947e-05  3.4538715818630994e-05  3.1403537214442823e-05  3.9405378532851155e-05  3.4765014184297180e-05  4.1684901894091591e-05  3.6946754000865245e-05  4.3845895257394332e-05  3.7882570119905916e-05  4.3055889993495432e-05  3.7103633227592791e-05  3.1969997458684874e-05  3.1315197338029856e-05  3.5071982281633654e-05  2.9399534955971317e-05  3.1929884613904872e-05  2.6662484067918385e-05  2.8026726564606089e-05  2.3198793054166883e-05  2.3813724151901238e-05  1.9459619951988127e-05  1.9512291973798650e-05  1.8522913375595880e-05  2.5802654171834535e-05  2.3254577996217096e-05  1.8857055644245060e-05  1.5517508767825314e-05  1.4952806933498682e-05  1.5327633085587162e-05  1.4214302290865514e-05  1.1743003345692820e-05  1.7808587460315246e-05  1.4549527164240313e-05  3.0457539825690615e-05  1.6701727547761262e-05  3.3902109201396354e-05  3.3184444637296653e-05  1.7627761648399060e-05  1.4697527788800867e-05  1.7752046458530228e-05  1.5734199231199818e-05  1.9925204449505434e-05  1.7666768384020578e-05  2.3054555481366352e-05  2.0470230924166367e-05  2.7967471838233020e-05  2.4258630736287784e-05  3.1792712880421940e-05  2.7315600355406822e-05  3.5024701922386570e-05  2.9499807607462706e-05  3.6998302594036755e-05  3.0367182300732421e-05  3.7941835034934687e-05  4.5350061219387494e-05  4.4340532061008999e-05  3.6458007545723631e-05  4.1566709423566328e-05  4.9111947836326812e-05  4.4737298581062465e-05  3.7390821737685621e-05  3.8833500669151949e-05  4.5598672319257165e-05  3.8376198357077603e-05  4.3908929756003253e-05  3.1732543365109397e-05  5.1141679198600489e-05  4.8174507732491653e-05  4.0312579017524197e-05  4.3300156186566226e-05  3.5355241472740237e-05  3.1947541612385899e-05  3.6870711708036605e-05  2.9428750136105233e-05  2.9567552037568822e-05  2.4482194972427316e-05  4.4840961821252571e-05  2.9664817563616391e-05  2.3059013405707541e-05  5.5376148434876010e-05  4.0605881697685228e-05  4.5979187009426135e-05  1.1982802652717572e-05  4.5868965118924878e-05  2.6905314162602878e-05  1.2161035963495627e-05  1.1659186053195163e-05  5.7285100414840063e-05  3.5187472619821168e-05  3.7361787645300236e-05  1.6948295084192942e-05  3.6419853088056981e-05  2.2764390954483354e-05  2.4897575693300013e-05  4.1403243792312824e-05  6.1512557794382220e-05  6.1784730189259226e-05  1.9462783487179981e-05  2.9847033668260417e-05  1.0420243126170099e-05  1.7309160237524445e-05  8.9485815844773745e-06  3.9031191165998395e-05  2.0352124958654034e-05  2.1540888220351870e-05  1.7353200089719805e-05  2.5347890917352614e-05  2.2962762039576150e-05  1.6670323811106114e-05  1.3323778954573801e-05  1.4009781685325507e-05  1.0039530482177007e-05  1.0086804609573948e-05  3.7693825080470397e-05  1.2072030767583789e-05  8.6260438698204199e-06  1.5120760892020747e-05  2.0833161212111130e-05  3.7106160536550213e-05  1.3636943189337025e-05  4.8148704124910017e-05  4.6764897360550323e-05  5.0552186810068730e-05  3.9486269914961334e-05  2.1869455474869826e-05  1.5869314910608586e-05  2.4465560308605598e-05  2.8222055227079232e-05  3.2576903919036356e-05  5.8156089662749668e-05  6.3212792238540982e-05  8.5972544177103548e-06  8.8877692676741750e-06  3.6325033255818579e-05  3.8433237660160028e-05  3.3774452994356041e-05  3.8749476052563273e-05  1.2293751552086102e-05  8.9432087308781702e-06  2.1511497198529433e-05  1.5333362700170520e-05  2.2758687311481022e-05  6.4704054855264600e-05  6.3992087718852642e-05  6.0441814557293055e-05  6.1803170720606561e-05  5.7651715391770556e-05  5.8033245785316726e-05  6.1611560341206368e-05  2.5314479535401342e-05  8.6081824059372797e-06  8.0915986762823843e-06  3.9251630504554343e-05  4.2282221400777431e-05  4.2552527572307382e-05  1.0780616776764046e-05  9.8607149298565728e-06  1.3406381401944217e-05  9.1784323879382905e-06  1.2174094682297514e-05  8.5364289837044103e-06  2.0774987423044464e-05  1.7151376454532629e-05  1.8801721552520016e-05  1.4876590825665821e-05  2.9015293288728308e-05  3.0893497432380297e-05  3.5124361264867486e-05  2.6941408520261671e-05  3.1326461562493932e-05  2.9229269683798961e-05  2.6858713038243561e-05  3.1406941517733810e-05  3.6320055695269026e-05  1.6713805931915209e-05  2.3318001129455978e-05  2.1879984973804167e-05  1.5869354194696969e-05  2.2858627348118854e-05  5.7448958207418343e-06  4.8093612984453746e-05  4.8877090664258910e-05  4.7457451136682790e-05  4.5435994924610879e-05  4.3299525618432723e-05  4.8946272567311110e-05  7.0187937480020755e-06  5.0728487038209085e-05  3.0901814252503071e-05  5.6961817826769196e-05  5.2659208184874760e-05  5.1053225472253973e-05  4.7436681897289039e-05  3.6001670530979438e-05  8.6195562849568667e-06  1.9407238461320486e-05  2.0811427720678226e-05  2.3509077461281785e-05  4.6167501236354858e-05  4.8388745378268458e-05  4.0589825135848422e-05  2.2742716364418160e-05  2.1794089117540097e-05  6.5175031686913834e-05  4.7636364618940763e-05  5.2618580974976911e-05  4.6924588059787707e-05  3.1908581527542551e-05  4.4511372926767891e-05  4.2321617037577598e-05  3.9084940383801632e-05  5.0821180076150294e-05  4.4662022249222362e-05  4.1602246909835614e-05  4.7802992647522022e-05  4.3462680587891327e-05  3.8169836952261951e-05  5.1164359256102724e-05  5.4090438533163334e-05  2.2421876722087968e-05  5.1422162013668991e-05  5.1294457721565139e-05  5.0724462259543161e-05  5.0976167746436853e-05  4.8381362665674716e-05  4.7446830318534238e-05  4.3117510757848085e-05  4.5129981149247982e-05  4.1401105930986400e-05  3.4785386903113937e-05  4.1691254969946643e-05  4.4158057370923177e-05  4.3522681143523862e-05  4.5438957749910502e-05  4.8136054945463626e-05  4.4340962637630116e-05  4.1304388064111542e-05  3.6208835798351565e-05  4.6261578059601891e-05  3.7930996301992822e-05  3.4851707850871080e-05  5.0241559337737228e-05  2.8314896239476951e-05  1.0885993788117135e-05  2.7533834557349807e-05  3.4671375673628653e-05  4.8496429047703870e-05  3.9007635077928750e-05  5.0671029593212900e-05  5.1261838478378264e-05  8.1620317289621369e-06  6.9529034435041183e-06  4.1058065169435317e-05  5.7528788866414101e-06  1.0385864757774202e-05  9.2143562409175229e-06  4.6260854637360919e-06  7.5677452493469596e-06  1.2698792534340736e-05  1.5718754784268948e-05  2.9988514685439546e-05  3.8392282545343873e-05  5.1914547360289524e-05  2.7777121429084922e-05  2.7604492287889952e-05  8.7359557886956766e-06  1.6592099407391881e-05  1.5838697802879159e-05  2.4608062255810423e-05  7.6926656984713365e-06  7.1737180159093054e-06  2.1605961455336923e-05  1.7297743930206683e-05  1.8238280917109629e-05  3