<?xml version="1.0"?>
<VTKFile type="UnstructuredGrid"  version="0.1"  >
<UnstructuredGrid>
<Piece  NumberOfPoints="1235" NumberOfCells="2372">
<Points>
<DataArray  type="Float64"  NumberOfComponents="3"  format="ascii">0 0 0  0 1 0  1 1 0  1 0 0  1.1 -0.1 0  -0.1 -0.1 0  1.1 1.1 0  -0.1 1.1 0  0.5002609509419399 0.5002895264509379 0  0.24800944693392 0.5413274249477394 0  0 0.9499999999997918 0  0 0.8999999999995836 0  0 0.8499999999996529 0  0 0.7999999999999998 0  0 0.7500000000003466 0  0 0.7000000000006934 0  0 0.6500000000010401 0  0 0.6000000000013869 0  0 0.5500000000017335 0  0 0.5000000000020587 0  0 0.4500000000018723 0  0 0.4000000000016644 0  0 0.3500000000014564 0  0 0.3000000000012483 0  0 0.2500000000010403 0  0 0.2000000000008322 0  0 0.1500000000006241 0  0 0.100000000000416 0  0 0.05000000000020799 0  0.04999999999989965 0 0  0.09999999999981467 0 0  0.1499999999997036 0 0  0.1999999999995579 0 0  0.2499999999994121 0 0  0.2999999999992664 0 0  0.3499999999991206 0 0  0.3999999999989749 0 0  0.4499999999988292 0 0  0.4999999999986943 0 0  0.5499999999988151 0 0  0.5999999999989468 0 0  0.6499999999990784 0 0  0.69999999999921 0 0  0.7499999999993417 0 0  0.7999999999994734 0 0  0.8499999999996051 0 0  0.8999999999997368 0 0  0.9499999999998684 0 0  1 0.04999999999989965 0  1 0.09999999999981467 0  1 0.1499999999997036 0  1 0.1999999999995579 0  1 0.2499999999994121 0  1 0.2999999999992664 0  1 0.3499999999991206 0  1 0.3999999999989749 0  1 0.4499999999988292 0  1 0.4999999999986943 0  1 0.5499999999988151 0  1 0.5999999999989468 0  1 0.6499999999990784 0  1 0.69999999999921 0  1 0.7499999999993417 0  1 0.7999999999994734 0  1 0.8499999999996051 0  1 0.8999999999997368 0  1 0.9499999999998684 0  0.9499999999997918 1 0  0.8999999999995836 1 0  0.8499999999996529 1 0  0.7999999999999998 1 0  0.7500000000003466 1 0  0.7000000000006934 1 0  0.6500000000010401 1 0  0.6000000000013869 1 0  0.5500000000017335 1 0  0.5000000000020587 1 0  0.4500000000018723 1 0  0.4000000000016644 1 0  0.3500000000014564 1 0  0.3000000000012483 1 0  0.2500000000010403 1 0  0.2000000000008322 1 0  0.1500000000006241 1 0  0.100000000000416 1 0  0.05000000000020799 1 0  -0.1 1.05000000000004 0  -0.1 1.000000000000079 0  -0.1 0.9500000000001624 0  -0.1 0.9000000000003032 0  -0.1 0.850000000000444 0  -0.1 0.8000000000005848 0  -0.1 0.7500000000007256 0  -0.1 0.7000000000008665 0  -0.1 0.6500000000010508 0  -0.1 0.6000000000012352 0  -0.1 0.5500000000014196 0  -0.1 0.500000000001539 0  -0.1 0.4500000000014195 0  -0.1 0.4000000000013 0  -0.1 0.3500000000011588 0  -0.1 0.3000000000010178 0  -0.1 0.2500000000008986 0  -0.1 0.2000000000007579 0  -0.1 0.1500000000006174 0  -0.1 0.1000000000005272 0  -0.1 0.05000000000040083 0  -0.1 2.671196597248127e-13 0  -0.1 -0.0499999999998666 0  -0.0500000000000906 -0.1 0  -1.730560139634463e-13 -0.1 0  0.04999999999975802 -0.1 0  0.09999999999961506 -0.1 0  0.1499999999994613 -0.1 0  0.199999999999302 -0.1 0  0.2499999999991446 -0.1 0  0.2999999999990088 -0.1 0  0.3499999999988296 -0.1 0  0.3999999999986936 -0.1 0  0.4499999999985143 -0.1 0  0.4999999999984002 -0.1 0  0.5499999999985247 -0.1 0  0.5999999999986493 -0.1 0  0.6499999999987955 -0.1 0  0.6999999999989417 -0.1 0  0.7499999999990659 -0.1 0  0.7999999999992116 -0.1 0  0.8499999999993573 -0.1 0  0.8999999999994526 -0.1 0  0.949999999999584 -0.1 0  0.9999999999997226 -0.1 0  1.049999999999861 -0.1 0  1.1 -0.0500000000000906 0  1.1 -1.730560139634463e-13 0  1.1 0.04999999999975802 0  1.1 0.09999999999961506 0  1.1 0.1499999999994613 0  1.1 0.199999999999302 0  1.1 0.2499999999991446 0  1.1 0.2999999999990088 0  1.1 0.3499999999988296 0  1.1 0.3999999999986936 0  1.1 0.4499999999985143 0  1.1 0.4999999999984002 0  1.1 0.5499999999985247 0  1.1 0.5999999999986493 0  1.1 0.6499999999987955 0  1.1 0.6999999999989417 0  1.1 0.7499999999990659 0  1.1 0.7999999999992116 0  1.1 0.8499999999993573 0  1.1 0.8999999999994526 0  1.1 0.949999999999584 0  1.1 0.9999999999997226 0  1.1 1.049999999999861 0  1.05000000000004 1.1 0  1.000000000000079 1.1 0  0.9500000000001624 1.1 0  0.9000000000003032 1.1 0  0.850000000000444 1.1 0  0.8000000000005848 1.1 0  0.7500000000007256 1.1 0  0.7000000000008665 1.1 0  0.6500000000010508 1.1 0  0.6000000000012352 1.1 0  0.5500000000014196 1.1 0  0.500000000001539 1.1 0  0.4500000000014195 1.1 0  0.4000000000013 1.1 0  0.3500000000011588 1.1 0  0.3000000000010178 1.1 0  0.2500000000008986 1.1 0  0.2000000000007579 1.1 0  0.1500000000006174 1.1 0  0.1000000000005272 1.1 0  0.05000000000040083 1.1 0  2.671196597248127e-13 1.1 0  -0.0499999999998666 1.1 0  0.2534653787954079 0.5657312737277405 0  0.2623324477810799 0.589116113200893 0  0.274164060217535 0.6111603622600039 0  0.288186878371442 0.6318831484784749 0  0.3047117122193908 0.6506529469265735 0  0.3233473174817644 0.6673576222144963 0  0.3433013754922579 0.6824586193654416 0  0.3644618671417344 0.6958315643378172 0  0.3866442038947279 0.7074328867627657 0  0.4096911613709733 0.7172044593513991 0  0.4334526311377643 0.7250646593334126 0  0.4577706829647025 0.7310195439528211 0  0.4824481170777484 0.7352352890923943 0  0.5074148875975372 0.7371228449364099 0  0.5324378454768374 0.7364571296596715 0  0.5572312297925942 0.7329600319599956 0  0.5814478846659663 0.7266138930260235 0  0.6048001604892544 0.7175789431378827 0  0.6270325821542643 0.7060713469349595 0  0.6478091874939029 0.6921028505375389 0  0.6668777399141637 0.6758763926826754 0  0.6841661106504632 0.6577742242764797 0  0.6992496609576054 0.6377934950995947 0  0.7119038602934672 0.6161927743920983 0  0.7220282489524594 0.5932944657036224 0  0.7297124975252961 0.5694681675638714 0  0.7348816857174099 0.5449724277761807 0  0.7370122589022284 0.5200289085003544 0  0.7365495580325002 0.4950000205154072 0  0.733744818138545 0.4701170380724068 0  0.728938447134718 0.4455473410229269 0  0.7220456594845932 0.4214891875498593 0  0.7131254507030333 0.3981000086118749 0  0.7025822643018778 0.3753947130074355 0  0.6900582184817853 0.3537259359612027 0  0.6755667735631646 0.3333168467199739 0  0.6595372916452387 0.3140929238410224 0  0.6415252757076533 0.296735384131286 0  0.6215550504556778 0.2816606400634974 0  0.5997850021986147 0.2693294788458755 0  0.5769249080996225 0.259142580642561 0  0.553119586546449 0.251483427705369 0  0.528353725141286 0.2480321821716323 0  0.5033451283736603 0.2482829922715631 0  0.4786046396693409 0.2519713745594276 0  0.4544524762168826 0.2584945501995614 0  0.4310332467428354 0.2672997228491126 0  0.4084840062686143 0.278143551139188 0  0.3868881264884902 0.290777293890101 0  0.3664037564969518 0.3051425220059491 0  0.3471606982960541 0.3211335393762412 0  0.3292681926384522 0.3386186837991309 0  0.3127115582866824 0.3573758702598585 0  0.2975750508375423 0.377290821766767 0  0.2839249881134429 0.3982584688574819 0  0.2719070119130364 0.4202009132788527 0  0.2619310652359659 0.4431403490348895 0  0.2542881357179629 0.466963073096093 0  0.249103913080451 0.4914367565694311 0  0.2468957269584049 0.5163506021279942 0  0.2718243564624855 0.5488012737317541 0  0.2787278453031196 0.4617224303680864 0  0.3126812103580545 0.6269292283058788 0  0.5368685123199644 0.269077731852991 0  0.4505875795535493 0.2825159668969668 0  0.6183766554733241 0.3067509320449863 0  0.3888006121927239 0.3152750200478901 0  0.3374887316611206 0.3620709256096831 0  0.6602472034815224 0.6515395022351863 0  0.5837101857503497 0.7022133211095311 0  0.4964653062594398 0.7141318635335627 0  0.7053829020154595 0.5764982788759415 0  0.7155081892728858 0.4858697595615198 0  0.4259432440140591 0.7007621809687886 0  0.6973943275576922 0.4175952947760767 0  0.3637282204666416 0.6718230049200485 0  0.6691829895342551 0.3535810079319071 0  0.3091602504431248 0.3997980894716059 0  0.6243286082881461 0.6816374534611813 0  0.5412705250602022 0.7112085959780715 0  0.7148337948714919 0.5319711678070886 0  0.6867621375396251 0.6181910052678727 0  0.5807919046314614 0.2868608217460948 0  0.2861630348584442 0.5913431704841184 0  0.4942195559494399 0.2715333560853745 0  0.2690520453042359 0.5048943793159574 0  0.6885876589129533 0.3946119130688256 0  0.6722132957848658 0.4127857617031297 0  0.6814180221644395 0.4370772517586632 0  0.6554055447497592 0.4316811513257169 0  0.6660573794295616 0.4580330632727608 0  0.6433311670468966 0.4538211959097986 0  0.6238910467219891 0.4302377853649587 0  0.6484695571604917 0.4792779687345707 0  0.6167916990556819 0.4736309427941675 0  0.6334888657702599 0.5089629690801694 0  0.5853927698331907 0.4428759052138905 0  0.5996340153768421 0.3972144562173587 0  0.5551930643806725 0.4136095687144476 0  0.5669195491039578 0.3688756214831691 0  0.5215987864885782 0.3869383530771365 0  0.5316408211946752 0.3396743206148869 0  0.4893049225978244 0.3549283330523423 0  0.483087998503232 0.3996993569264204 0  0.4495429891554951 0.3700739850037659 0  0.4428204757982373 0.4124272889916266 0  0.4187808204976701 0.3866879939284245 0  0.4039556234271314 0.418985099833338 0  0.5973254946962494 0.3649094564392846 0  0.5016114644607198 0.3240056485067503 0  0.6684713920848484 0.5149631404032361 0  0.6444225484709379 0.5430174885175083 0  0.6063556024399307 0.5431256398561553 0  0.6283502683516449 0.5829340413710195 0  0.5829254771621531 0.5773054056611948 0  0.5987061565247475 0.6134064026805283 0  0.5608520545942253 0.6166411573085432 0  0.5835246787145021 0.64306094868093 0  0.5384495053704027 0.6463172816812056 0  0.5223882020547252 0.6097884622682883 0  0.4946902381961249 0.6452542781223336 0  0.4810119843674698 0.6072339253361776 0  0.4640367980484058 0.6330816499612764 0  0.4415704642743082 0.6104844451869708 0  0.421620904094985 0.6321703629398352 0  0.3974301335366249 0.6112458636213043 0  0.4211017858484764 0.5724582259468899 0  0.3759545665083273 0.573936508019293 0  0.3999633269299808 0.5366827069087022 0  0.3561545335825917 0.5402056987436348 0  0.3791461071482187 0.5030160611320688 0  0.337445725
[...]
<PointData  Scalars="u"> 
<DataArray  type="Float64"  Name="u"  format="ascii">0.0000000000000000e+00  0.0000000000000000e+00  0.0000000000000000e+00  0.0000000000000000e+00  0.0000000000000000e+00  0.0000000000000000e+00  0.0000000000000000e+00  0.0000000000000000e+00  3.4092410317679772e-01  3.0390776331493446e-01  0.0000000000000000e+00  0.0000000000000000e+00  0.0000000000000000e+00  0.0000000000000000e+00  0.0000000000000000e+00  0.0000000000000000e+00  0.0000000000000000e+00  0.0000000000000000e+00  0.0000000000000000e+00  0.0000000000000000e+00  0.0000000000000000e+00  0.0000000000000000e+00  0.0000000000000000e+00  0.0000000000000000e+00  0.0000000000000000e+00  0.0000000000000000e+00  0.0000000000000000e+00  0.0000000000000000e+00  0.0000000000000000e+00  0.0000000000000000e+00  0.0000000000000000e+00  0.0000000000000000e+00  0.0000000000000000e+00  0.0000000000000000e+00  0.0000000000000000e+00  0.0000000000000000e+00  0.0000000000000000e+00  0.0000000000000000e+00  0.0000000000000000e+00  0.0000000000000000e+00  0.0000000000000000e+00  0.0000000000000000e+00  0.0000000000000000e+00  0.0000000000000000e+00  0.0000000000000000e+00  0.0000000000000000e+00  0.0000000000000000e+00  0.0000000000000000e+00  0.0000000000000000e+00  0.0000000000000000e+00  0.0000000000000000e+00  0.0000000000000000e+00  0.0000000000000000e+00  0.0000000000000000e+00  0.0000000000000000e+00  0.0000000000000000e+00  0.0000000000000000e+00  0.0000000000000000e+00  0.0000000000000000e+00  0.0000000000000000e+00  0.0000000000000000e+00  0.0000000000000000e+00  0.0000000000000000e+00  0.0000000000000000e+00  0.0000000000000000e+00  0.0000000000000000e+00  0.0000000000000000e+00  0.0000000000000000e+00  0.0000000000000000e+00  0.0000000000000000e+00  0.0000000000000000e+00  0.0000000000000000e+00  0.0000000000000000e+00  0.0000000000000000e+00  0.0000000000000000e+00  0.0000000000000000e+00  0.0000000000000000e+00  0.0000000000000000e+00  0.0000000000000000e+00  0.0000000000000000e+00  0.0000000000000000e+00  0.0000000000000000e+00  0.0000000000000000e+00  0.0000000000000000e+00  0.0000000000000000e+00  0.0000000000000000e+00  0.0000000000000000e+00  0.0000000000000000e+00  0.0000000000000000e+00  0.0000000000000000e+00  0.0000000000000000e+00  0.0000000000000000e+00  0.0000000000000000e+00  0.0000000000000000e+00  0.0000000000000000e+00  0.0000000000000000e+00  0.0000000000000000e+00  0.0000000000000000e+00  0.0000000000000000e+00  0.0000000000000000e+00  0.0000000000000000e+00  0.0000000000000000e+00  0.0000000000000000e+00  0.0000000000000000e+00  0.0000000000000000e+00  0.0000000000000000e+00  0.0000000000000000e+00  0.0000000000000000e+00  0.0000000000000000e+00  0.0000000000000000e+00  0.0000000000000000e+00  0.0000000000000000e+00  0.0000000000000000e+00  0.0000000000000000e+00  0.0000000000000000e+00  0.0000000000000000e+00  0.0000000000000000e+00  0.0000000000000000e+00  0.0000000000000000e+00  0.0000000000000000e+00  0.0000000000000000e+00  0.0000000000000000e+00  0.0000000000000000e+00  0.0000000000000000e+00  0.0000000000000000e+00  0.0000000000000000e+00  0.0000000000000000e+00  0.0000000000000000e+00  0.0000000000000000e+00  0.0000000000000000e+00  0.0000000000000000e+00  0.0000000000000000e+00  0.0000000000000000e+00  0.0000000000000000e+00  0.0000000000000000e+00  0.0000000000000000e+00  0.0000000000000000e+00  0.0000000000000000e+00  0.0000000000000000e+00  0.0000000000000000e+00  0.0000000000000000e+00  0.0000000000000000e+00  0.0000000000000000e+00  0.0000000000000000e+00  0.0000000000000000e+00  0.0000000000000000e+00  0.0000000000000000e+00  0.0000000000000000e+00  0.0000000000000000e+00  0.0000000000000000e+00  0.0000000000000000e+00  0.0000000000000000e+00  0.0000000000000000e+00  0.0000000000000000e+00  0.0000000000000000e+00  0.0000000000000000e+00  0.0000000000000000e+00  0.0000000000000000e+00  0.0000000000000000e+00  0.0000000000000000e+00  0.0000000000000000e+00  0.0000000000000000e+00  0.0000000000000000e+00  0.0000000000000000e+00  0.0000000000000000e+00  0.0000000000000000e+00  0.0000000000000000e+00  0.0000000000000000e+00  0.0000000000000000e+00  0.0000000000000000e+00  0.0000000000000000e+00  0.0000000000000000e+00  0.0000000000000000e+00  0.0000000000000000e+00  0.0000000000000000e+00  0.0000000000000000e+00  0.0000000000000000e+00  0.0000000000000000e+00  3.0425994866581252e-01  3.0491794190511545e-01  3.0579959909362087e-01  3.0641206405992089e-01  3.0734426477809884e-01  3.0825053156823534e-01  3.0883476828502171e-01  3.0983650584496142e-01  3.0998277046315142e-01  3.0967006125184460e-01  3.0945924945853781e-01  3.0917288972727047e-01  3.0864738953092352e-01  3.0803408492550038e-01  3.0743587733761563e-01  3.0718880720558239e-01  3.0707686215990054e-01  3.0684956223502208e-01  3.0675605965603198e-01  3.0709026918492316e-01  3.0674123349433258e-01  3.0680317342532692e-01  3.0707263723073436e-01  3.0702301851594482e-01  3.0700789894005176e-01  3.0709954721740984e-01  3.0756277226952189e-01  3.0784037007532600e-01  3.0862458867962300e-01  3.0940244507729464e-01  3.0902827277922279e-01  3.0904540710203915e-01  3.0965358332694215e-01  3.0967258682239596e-01  3.0923822032785964e-01  3.0853260063957388e-01  3.0750741712806240e-01  3.0671198444567110e-01  3.0608520333699213e-01  3.0562946776623479e-01  3.0489063461364219e-01  3.0418084067515533e-01  3.0426100988243548e-01  3.0487176633602125e-01  3.0617805476109666e-01  3.0740215070363097e-01  3.0828223172400243e-01  3.0929530053558763e-01  3.1007277032670194e-01  3.1053198871669163e-01  3.1077240629990877e-01  3.1069994260239359e-01  3.1014509843893079e-01  3.0981195892888419e-01  3.0921242405667893e-01  3.0811995299026212e-01  3.0750985536263620e-01  3.0660181985792911e-01  3.0535044323183236e-01  3.0450479210347187e-01  3.1881698039015532e-01  3.2072632992074795e-01  3.2090811060849256e-01  3.1869911073967205e-01  3.2095742163551882e-01  3.2006959781345140e-01  3.2264472535171568e-01  3.2307425888624286e-01  3.2027340236544272e-01  3.2099279135123382e-01  3.2196084377266937e-01  3.2075671189582683e-01  3.2154431137824496e-01  3.2241168627752342e-01  3.2227400755297425e-01  3.2135432848096229e-01  3.2001054679565866e-01  3.2256301677243066e-01  3.2062527915379868e-01  3.2158612280272419e-01  3.2122691602389064e-01  3.2034681399440756e-01  3.2012340335032274e-01  3.1900238145379017e-01  3.1992952032993682e-01  3.1930591301987293e-01  3.2199683330765705e-01  3.2481842841547970e-01  3.2492889875973635e-01  3.2777186979203216e-01  3.2767370522205469e-01  3.2972389077396919e-01  3.3081011966713397e-01  3.2979517224210148e-01  3.3355057546911959e-01  3.3189338607001179e-01  3.3605829247013230e-01  3.3050178566605892e-01  3.3633513152012623e-01  3.3016590400056828e-01  3.3530508665210662e-01  3.2775203245667706e-01  3.3058527790385533e-01  3.3637306709085885e-01  3.3137581484371287e-01  3.3566624608983514e-01  3.3135769386260883e-01  3.3319325060766131e-01  3.2740704126101533e-01  3.2639076172940046e-01  3.2737837666351599e-01  3.2970047127321789e-01  3.3454646699593937e-01  3.2895287505575499e-01  3.3457497963814398e-01  3.2944185508076723e-01  3.3183218247364554e-01  3.2745937996300745e-01  3.2937552428695061e-01  3.3466327986530992e-01  3.3036034190016250e-01  3.3474625291252053e-01  3.3118647268735346e-01  3.3279503540856809e-01  3.2929072449768332e-01  3.2948208259563555e-01  3.3554960782217397e-01  3.3026599265181494e-01  3.3556182185678085e-01  3.2960725770157512e-01  3.3418085662553887e-01  3.2814988768238601e-01  3.2723862737693932e-01  3.3014843467608967e-01  3.2563045960228093e-01  3.2548771487374190e-01  3.2898517930777804e-01  3.2713075186739571e-01  3.3796147268011473e-01  3.2561607138562487e-01  3.2617494635775562e-01  3.2351932247539339e-01  3.2567325215623583e-01  3.2748864097227492e-01  3.2467968325160390e-01  3.2635739551985449e-01  3.2654553104338530e-01  3.2668142153504443e-01  3.3809069215651522e-01  3.2612465113032685e-01  3.2422864642602434e-01  3.2396773962633429e-01  3.2540405345651496e-01  3.2703890447345380e-01  3.2717695394445012e-01  3.2510516977708126e-01  3.2603096811067461e-01  3.2561996788193093e-01  3.2431326385503911e-01  3.2620792970675699e-01  3.2738844931363920e-01  3.2437784251098084e-01  3.2395450406485238e-01  3.2631429084899960e-01  3.2366494776220101e-01  3.3831046315335306e-01  3.2314243322332037e-01  3.3820427647000972e-01  3.2330429083881490e-01  3.2735129499077026e-01  3.2482451540062579e-01  3.2402733411476781e-01  3.3904509805596444e-01  3.2441455176503409e-01  3.2311148548375324e-01  3.2331698322670382e-01  3.2200821495601789e-01  3.3071252043084770e-01  3.2728688080954432e-01  3.2606506539029861e-01  3.2495705978611011e-01  3.2187963133691228e-01  3.3875845858616033e-01  3.2441474656866764e-01  3.2339918718497762e-01  3.2328574695587869e-01  3.2536326086350381e-01  3.2212998383887848e-01  3.2279938105029499e-01  3.2112243715891481e-01  3.2171183843209117e-01  3.2117840282308696e-01  3.2251293856547247e-01  3.3483670426225831e-01  3.2097644189164293e-01  3.2248901960398907e-01  3.2536555220643887e-01  3.2307178342559834e-01  3.2229784723047789e-01  3.2125298564447119e-01  3.2614868988285001e-01  3.2319103265318300e-01  3.2178596753955785e-01  3.2744756741664549e-01  3.2171976217166565e-01  3.2057718826769821e-01  3.2281011813923555e-01  3.2540164282614725e-01  3.2061701929029257e-01  3.2327525558573689e-01  3.2441149667200098e-01  3.2052226508585097e-01  3.2439727923521527e-01  3.2073835665609784e-01  3.2507731310647631e-01  3.2266485729929245e-01  3.1962942731178734e-01  3.1951562273232931e-01  3.1978209571081412e-01  3.2101756007630222e-01  3.1956526313041445e-01  3.2214230555943657e-01  3.2521283227994802e-01  3.3773215920788635e-01  3.2386095751931937e-01  3.3764630677595697e-01  3.1894058709497985e-01  3.2125940120500479e-01  3.2154632961264501e-01  3.1809667908892914e-01  3.1931134606881889e-01  3.2243783392574860e-01  3.2156021070274216e-01  3.3845743351046803e-01  3.1931972861665159e-01  3.2167793509700054e-01  3.2454104060394029e-01  3.2123749938137125e-01  3.2845603240812715e-01  3.3732905484432307e-01  3.2411622074994112e-01  3.4070943402283910e-01  3.1978293965499632e-01  3.2334986596138193e-01  3.2333614913496889e-01  3.2162678261644728e-01  3.1914648597677098e-01  3.2346318039013505e-01  3.2484639475340438e-01  3.2383025829696865e-01  3.2614893546643575e-01  3.2457110923054927e-01  3.3902147747484607e-01  3.2458206435238873e-01  3.2228109440323144e-01  3.2257308773020638e-01  3.2303200990626607e-01  3.4011618463032495e-01  3.2173638765973872e-01  3.4029358036170870e-01  3.1751250981315715e-01  3.2903594487367421e-01  3.1983738346339147e-01  3.2289891158756895e-01  3.2620764413403663e-01  3.2280264934293279e-01  3.2502405984650662e-01  3.1820962240695205e-01  3.2536087873903841e-01  3.2760324483910863e-01  3.4022217090484297e-01  3.2436753152018288e-01  3.2835982150681947e-01  3.2202732194751393e-01  3.2439479457165599e-01  3.2506387086888461e-01  3.2676197958479730e-01  3.2541052212925053e-01  3.2638181256762216e-01  3.2492420141310346e-01  3.2922303382405138e-01  3.2423387002511100e-01  3.2467214293420549e-01  3.2190964407670736e-01  3.2833342411107636e-01  3.2080556454505227e-01  3.2673089575351177e-01  3.3576495505207726e-01  3.2605228274320924e-01  3.2851531699184433e-01  3.2081512302427084e-01  3.2944860708942020e-01  3.4037962671960448e-01  3.2603292735677769e-01  3.2556292028115080e-01  3.2934230531887532e-01  3.2717150621938174e-01  3.2349220036380827e-01  3.2754227094376476e-01  3.2674406631996356e-01  3.2238277275096727e-01  3.2178362287055351e-01  3.2748150699730200e-01  2.8376531878234224e-01  2.7760906954440029e-01  2.7205238825558969e-01  2.8085758191039423e-01  2.8366708272594343e-01  2.8238068190267290e-01  2.8574411016362655e-01  2.8764323629139171e-01  2.7762000885927635e-01  2.7889527993053093e-01  2.7674130197316599e-01  2.7407110446772770e-01  2.7417480111279074e-01  2.7458556901430636e-01  1.4060478266056857e-02  2.8046041980278313e-01  1.6711944501849960e-02  1.4439794261046879e-02  2.8475262439438676e-01  1.6350743663072341e-02  1.4084277440111946e-02  1.4971267625222860e-02  1.5410991054944322e-02  2.7886052825084923e-01  1.6113417410471783e-02  2.7932694035657002e-01  2.7875015488320942e-01  2.7462963172229654e-01  2.8043453244574501e-01  2.7377421883242065e-01  2.7934045080626241e-01  2.9470156362874159e-02  2.4960527355335577e-02  2.6004036857647555e-02  2.5966946674127245e-02  2.7663311565461045e-02  2.8973887529908159e-02  3.0739759007107386e-02  2.8738593394359135e-02  2.9042751715856834e-02  3.4896241888673324e-02  3.2274129655252101e-02  3.5487512513470022e-02  5.1876421041606386e-03  5.3863551699414982e-03  6.0566002042161341e-03  6.6815239453419488e-03  5.7515446903895866e-03  5.3965558540334264e-03  6.0501389754137949e-03  6.1377805510828805e-03  2.7040139228751980e-01  2.3784243003015604e-01  2.3691108592976967e-01  1.9956903651862573e-01  1.9744432742430529e-01  1.9606923613283603e-01  1.5892052431590695e-01  1.6264548802816847e-01  1.2226168921167931e-01  1.2045948669017090e-01  1.5504968815567555e-01  1.1557958002490780e-01  1.4617401040828640e-01  1.0758678982832481e-01  1.3510905374577012e-01  9.8029380967071297e-02  1.2113803299160476e-01  8.7223808110537440e-02  1.0448191731596962e-01  7.3604698783681421e-02  8.6712007410019928e-02  1.2009437535758535e-01  9.9239366370143134e-02  1.3466013081397865e-01  1.0461647499165296e-01  6.8185808992817801e-02  1.4528335676927218e-01  1.1506894936138710e-01  1.4967211847753584e-01  1.1728207591767591e-01  1.5630051398493752e-01  8.6108321414021707e-02  1.1723150967812226e-01  1.5721293227000280e-01  1.1419264069022095e-01  1.4493969043700106e-01  1.6824395712827619e-01  1.6274377615683186e-01  6.4722673865955385e-02  1.2737071129600921e-01  1.8505935139890181e-01  1.0361194415035277e-01  1.3353381463223013e-01  8.8440233607583130e-02  1.9282766282162872e-01  1.7775466133448695e-01  1.6584417672775725e-01  1.2333602216892581e-01  1.5635750749637559e-01  1.0964407497811197e-01  1.3269432253422689e-01  9.2016431101032387e-02  1.1261834222733637e-01  1.5476411529857098e-01  1.3233098332220522e-01  9.3280445880939616e-02  1.0967173934043652e-01  7.4563021255059883e-02  8.7012618395934133e-02  1.2813035343830800e-01  9.6822885872095379e-02  1.3098079473561303e-01  1.0261667900105834e-01  1.3333601439874468e-01  1.0480156989294119e-01  1.3965620827478911e-01  1.0333856522552973e-01  1.3034192841915890e-01  7.8621774424546792e-02  9.6149526860931270e-02  1.2040912555357694e-01  8.5499821871926382e-02  1.0650512422384968e-01  7.3324929459147078e-02  1.4562924380825246e-01  1.2831465880862766e-01  1.7184988668479342e-01  1.7526600190352404e-01  1.5496733592053441e-01  1.6713026288228555e-01  1.0956912271913932e-01  1.2647226133474357e-01  6.5907383456906499e-02  5.5750293082078385e-02  1.7705519453408450e-01  8.6720650870852622e-02  1.0098279579693838e-01  1.4276812652778245e-01  1.1510923824272305e-01  1.6243073783657649e-01  1.2723576776455559e-01  1.6766987571047345e-01  1.3959421605468747e-01  9.7832387682844607e-02  1.0491427552921641e-01  1.4151439469290528e-01  1.0973452040954565e-01  1.4433910866385111e-01  1.1238330429925016e-01  1.4800884811077805e-01  1.1161424653104082e-01  1.4000829947241877e-01  1.0591839325870178e-01  1.3103788654630433e-01  9.6868012926122488e-02  1.1869003468834671e-01  8.5472893438697226e-02  1.0336157903658995e-01  8.4463949490148418e-02  6.7224160924803614e-02  5.7898700828544571e-02  1.3873052020269930e-01  1.2047056362371338e-01  8.7870759560654293e-02  1.0044968809868707e-01  1.3649650784397471e-01  1.0999434112725469e-01  7.3306369835065444e-02  1.6774765060159283e-01  1.5618317539140170e-01  1.2047388729596364e-01  4.3692206818187328e-02  1.6591995977377838e-01  1.2611127333136180e-01  3.6311697031173817e-02  1.6702260077084632e-01  1.2753050862005932e-01  1.6487310163944732e-01  1.2489049695412939e-01  1.6572844859622191e-01  1.1632500911535711e-01  1.4718796576039980e-01  1.0647041597382724e-01  1.3719248462473865e-01  9.3144522572733174e-02  9.6134605882582713e-02  1.2328056172563678e-01  1.6700220379720507e-01  1.4891113576075043e-01  1.0925054469313560e-01  1.3004166096439262e-01  9.3239127275546507e-02  1.0999595957852418e-01  1.4773129167586344e-01  1.2391417717866755e-01  9.0013423537295453e-02  1.0110220042929854e-01  7.1179029968942570e-02  7.9069471582828801e-02  1.0953913375758177e-01  8.4076096592176644e-02  1.1388092611583568e-01  8.5620494122722213e-02  1.1476759703848141e-01  5.3631544595527776e-02  1.4673162577489440e-01  1.5236918034369409e-01  1.1303644182663695e-01  1.4429482183595968e-01  1.6260623310974803e-01  1.0635028732469917e-01  1.3501449644880859e-01  8.0427278387769807e-02  6.0303250331123867e-02  1.7823297456270676e-01  1.8580132830786891e-01  1.8244739544549415e-01  1.6872733890193126e-01  1.2740001271434406e-01  1.8415026100845930e-01  6.0941717708692250e-02  2.2272347433221357e-01  1.9408733663220082e-01  5.6669528602622414e-02  1.7211964825339532e-01  4.7538972125680867e-02  2.1326552675252131e-01  2.0294358094866000e-01  6.8477601185908510e-02  1.8991134239507496e-01  2.0525925803494549e-01  4.7149959144688940e-02  1.9911150314234588e-01  5.9691528721323772e-02  1.8644399374427567e-01  1.9091046953504695e-01  1.9126932026540711e-01  8.3186877307839205e-02  7.3949258077720112e-02  6.1518589660472446e-02  8.1059809511327227e-02  8.8086099523059444e-02  2.1556596795266048e-01  2.0374024799934418e-01  2.2266424222314071e-01  2.2075814815061670e-01  2.3329332966232216e-01  2.1984792342980322e-01  2.7223332318893526e-02  2.8016881537822384e-02  1.9904886350743743e-02  9.0799929894202491e-02  2.2575291155109140e-01  2.4885215787497328e-01  1.7468311051006880e-01  6.9885926942846580e-02  6.1464701376849347e-02  1.2473275545970273e-01  1.8464143850716364e-01  2.0488183864609041e-01  8.9040253713463330e-02  2.2522227152144569e-01  2.4635072199466762e-01  2.0815796006496881e-01  2.0375646022355634e-01  2.1894812138890143e-01  2.4577288864211747e-01  2.0987981025817226e-01  2.1212899870705082e-01  2.1386838439821193e-01  2.4401127774600440e-01  2.3752906790198816e-01  7.2651605572830152e-02  5.1847684941841610e-02  2.5957864886696630e-01  7.6327331131044951e-02  2.2793020770384148e-01  2.2178114464760149e-01  1.8899026461367352e-01  2.5441873969353940e-01  4.4413234867410140e-02  2.3392584954862791e-01  3.4712645971272153e-02  3.5785893928137608e-02  2.3853144777204519e-01  3.7550159758320358e-02  3.9130189112514722e-02  3.5630889018608371e-02  6.5218032419307834e-02  7.5143909069622233e-02  5.7588291616647407e-02  2.7253055341754928e-01  2.5738542987580076e-01  2.4208891757773235e-01  2.1683231769977825e-02  2.3781019330051282e-02  4.4047157144698285e-02  3.6775725317602925e-02  3.9014579896964767e-02  4.9632909860180832e-02  3.0601154797314657e-02  4.4448435226010136e-02  2.0357691445742127e-01  2.7572974122550536e-01  2.3826280424446544e-01  2.3969717830049186e-01  2.7774163324861528e-01  2.4421958474314368e-01  2.4212458170249113e-01  2.4174428286364424e-01  2.7521254614870788e-01  2.7196891028619158e-01  2.4229752162215365e-01  2.4352912166090224e-01  2.3422706405960927e-01  2.0688945072771525e-01  1.5991173408777529e-01  2.0967729425654802e-01  2.1456017331676816e-01  2.4970657393254897e-01  1.8454262222330212e-01  2.2691168376143006e-01  1.9855942623859515e-01  2.4011963564048214e-01  5.2294770270115559e-02  2.7550575885314538e-01  2.4377494827938206e-01  2.3829289529231629e-01  2.0933204258533686e-01  2.0614048634451515e-01  1.8624015737735694e-01  3.2597584626409389e-02  2.7513420984455633e-01  2.3753142044653069e-01  1.7431663861187477e-01  2.7720403713671377e-01  1.8841250593646711e-01  2.2322820742695634e-01  2.2268264279731589e-01  2.2664269125476816e-01  2.5840914713456425e-01  2.5481197261615779e-01  2.1775460525125903e-01  2.7352824029761946e-01  2.4844564311038014e-01  2.4222975831646729e-01  2.4899593786562885e-01  2.8001439939937939e-01  1