<?xml version="1.0"?>
<VTKFile type="UnstructuredGrid"  version="0.1"  >
<UnstructuredGrid>
<Piece  NumberOfPoints="1235" NumberOfCells="2372">
<Points>
<DataArray  type="Float64"  NumberOfComponents="3"  format="ascii">0 0 0  0 1 0  1 1 0  1 0 0  1.1 -0.1 0  -0.1 -0.1 0  1.1 1.1 0  -0.1 1.1 0  0.5033535810547434 0.5030402211335439 0  0.2497111397429272 0.5432453740147168 0  0 0.9499999999997918 0  0 0.8999999999995836 0  0 0.8499999999996529 0  0 0.7999999999999998 0  0 0.7500000000003466 0  0 0.7000000000006934 0  0 0.6500000000010401 0  0 0.6000000000013869 0  0 0.5500000000017335 0  0 0.5000000000020587 0  0 0.4500000000018723 0  0 0.4000000000016644 0  0 0.3500000000014564 0  0 0.3000000000012483 0  0 0.2500000000010403 0  0 0.2000000000008322 0  0 0.1500000000006241 0  0 0.100000000000416 0  0 0.05000000000020799 0  0.04999999999989965 0 0  0.09999999999981467 0 0  0.1499999999997036 0 0  0.1999999999995579 0 0  0.2499999999994121 0 0  0.2999999999992664 0 0  0.3499999999991206 0 0  0.3999999999989749 0 0  0.4499999999988292 0 0  0.4999999999986943 0 0  0.5499999999988151 0 0  0.5999999999989468 0 0  0.6499999999990784 0 0  0.69999999999921 0 0  0.7499999999993417 0 0  0.7999999999994734 0 0  0.8499999999996051 0 0  0.8999999999997368 0 0  0.9499999999998684 0 0  1 0.04999999999989965 0  1 0.09999999999981467 0  1 0.1499999999997036 0  1 0.1999999999995579 0  1 0.2499999999994121 0  1 0.2999999999992664 0  1 0.3499999999991206 0  1 0.3999999999989749 0  1 0.4499999999988292 0  1 0.4999999999986943 0  1 0.5499999999988151 0  1 0.5999999999989468 0  1 0.6499999999990784 0  1 0.69999999999921 0  1 0.7499999999993417 0  1 0.7999999999994734 0  1 0.8499999999996051 0  1 0.8999999999997368 0  1 0.9499999999998684 0  0.9499999999997918 1 0  0.8999999999995836 1 0  0.8499999999996529 1 0  0.7999999999999998 1 0  0.7500000000003466 1 0  0.7000000000006934 1 0  0.6500000000010401 1 0  0.6000000000013869 1 0  0.5500000000017335 1 0  0.5000000000020587 1 0  0.4500000000018723 1 0  0.4000000000016644 1 0  0.3500000000014564 1 0  0.3000000000012483 1 0  0.2500000000010403 1 0  0.2000000000008322 1 0  0.1500000000006241 1 0  0.100000000000416 1 0  0.05000000000020799 1 0  -0.1 1.05000000000004 0  -0.1 1.000000000000079 0  -0.1 0.9500000000001624 0  -0.1 0.9000000000003032 0  -0.1 0.850000000000444 0  -0.1 0.8000000000005848 0  -0.1 0.7500000000007256 0  -0.1 0.7000000000008665 0  -0.1 0.6500000000010508 0  -0.1 0.6000000000012352 0  -0.1 0.5500000000014196 0  -0.1 0.500000000001539 0  -0.1 0.4500000000014195 0  -0.1 0.4000000000013 0  -0.1 0.3500000000011588 0  -0.1 0.3000000000010178 0  -0.1 0.2500000000008986 0  -0.1 0.2000000000007579 0  -0.1 0.1500000000006174 0  -0.1 0.1000000000005272 0  -0.1 0.05000000000040083 0  -0.1 2.671196597248127e-13 0  -0.1 -0.0499999999998666 0  -0.0500000000000906 -0.1 0  -1.730560139634463e-13 -0.1 0  0.04999999999975802 -0.1 0  0.09999999999961506 -0.1 0  0.1499999999994613 -0.1 0  0.199999999999302 -0.1 0  0.2499999999991446 -0.1 0  0.2999999999990088 -0.1 0  0.3499999999988296 -0.1 0  0.3999999999986936 -0.1 0  0.4499999999985143 -0.1 0  0.4999999999984002 -0.1 0  0.5499999999985247 -0.1 0  0.5999999999986493 -0.1 0  0.6499999999987955 -0.1 0  0.6999999999989417 -0.1 0  0.7499999999990659 -0.1 0  0.7999999999992116 -0.1 0  0.8499999999993573 -0.1 0  0.8999999999994526 -0.1 0  0.949999999999584 -0.1 0  0.9999999999997226 -0.1 0  1.049999999999861 -0.1 0  1.1 -0.0500000000000906 0  1.1 -1.730560139634463e-13 0  1.1 0.04999999999975802 0  1.1 0.09999999999961506 0  1.1 0.1499999999994613 0  1.1 0.199999999999302 0  1.1 0.2499999999991446 0  1.1 0.2999999999990088 0  1.1 0.3499999999988296 0  1.1 0.3999999999986936 0  1.1 0.4499999999985143 0  1.1 0.4999999999984002 0  1.1 0.5499999999985247 0  1.1 0.5999999999986493 0  1.1 0.6499999999987955 0  1.1 0.6999999999989417 0  1.1 0.7499999999990659 0  1.1 0.7999999999992116 0  1.1 0.8499999999993573 0  1.1 0.8999999999994526 0  1.1 0.949999999999584 0  1.1 0.9999999999997226 0  1.1 1.049999999999861 0  1.05000000000004 1.1 0  1.000000000000079 1.1 0  0.9500000000001624 1.1 0  0.9000000000003032 1.1 0  0.850000000000444 1.1 0  0.8000000000005848 1.1 0  0.7500000000007256 1.1 0  0.7000000000008665 1.1 0  0.6500000000010508 1.1 0  0.6000000000012352 1.1 0  0.5500000000014196 1.1 0  0.500000000001539 1.1 0  0.4500000000014195 1.1 0  0.4000000000013 1.1 0  0.3500000000011588 1.1 0  0.3000000000010178 1.1 0  0.2500000000008986 1.1 0  0.2000000000007579 1.1 0  0.1500000000006174 1.1 0  0.1000000000005272 1.1 0  0.05000000000040083 1.1 0  2.671196597248127e-13 1.1 0  -0.0499999999998666 1.1 0  0.2549268263092513 0.5678821437411079 0  0.2632195384231319 0.5916575404553623 0  0.2742951107473015 0.6143994364289255 0  0.2879188497645502 0.6358183924066366 0  0.3038736546708316 0.6555979259378368 0  0.3219626080691224 0.6736539313894725 0  0.3417775507719023 0.6898800489267856 0  0.363146823374722 0.7042039559629281 0  0.3856961751708588 0.7166259673831661 0  0.4092512888857338 0.727059089570972 0  0.4336125355369465 0.7353680367016542 0  0.4586638332023683 0.7414865009784491 0  0.4841543632689068 0.745351189784762 0  0.50990135654094 0.7468029299879312 0  0.5356262554138914 0.7456013571658849 0  0.5610808235157438 0.7416261952908623 0  0.5859135376720707 0.7348884100801086 0  0.6098845944042995 0.725504288745946 0  0.6326399998818258 0.7135514345855425 0  0.6539752038331794 0.69918628231506 0  0.6736287904028614 0.6826069751985571 0  0.6912797325840455 0.6639750307314329 0  0.7067792261887227 0.6434681768865731 0  0.7199398741794928 0.621398436368052 0  0.7306186344863439 0.5980003164945558 0  0.7386887667281995 0.5736094098724903 0  0.7440432559735992 0.5484512239886778 0  0.7467036982069365 0.5228418672650083 0  0.7466706034432842 0.4971018831249093 0  0.7441566643988584 0.4714241009445331 0  0.7393406103661045 0.4460922477615962 0  0.7322346977502071 0.4213450668725707 0  0.722898914173608 0.3973204981985662 0  0.7114602484716257 0.3742236977025515 0  0.698008785595407 0.3522802280323155 0  0.6826361464779679 0.3316737253822072 0  0.6653634556509571 0.3126714133107827 0  0.6462844952847476 0.2957390856962978 0  0.6254563819649163 0.2810033780529885 0  0.6032231565427796 0.2686521273510469 0  0.5797975868755926 0.2588489161671098 0  0.5554277353376121 0.2520221417091243 0  0.5304785882182147 0.2483040572757461 0  0.5052221424825686 0.2477770496055346 0  0.480045135300482 0.2503494283379254 0  0.4552069272382551 0.2558088535537534 0  0.4309847711884405 0.2638015191448601 0  0.4075687361361743 0.2740871243356441 0  0.3851382326911866 0.2864745958435596 0  0.3638535694598216 0.3008131254666155 0  0.3438750418238353 0.3169682435268917 0  0.3253681277016374 0.3347818381472638 0  0.308442607097403 0.3540963394052206 0  0.2932546406534303 0.3747523142277298 0  0.2798957251042052 0.3966250850985668 0  0.268564070230025 0.4195406099147663 0  0.2594872646746205 0.443375748001353 0  0.2528395012123433 0.4679423811705005 0  0.2488355598732812 0.4929595603337632 0  0.2476995715755581 0.5181611626713012 0  0.2731848152540344 0.5509461528865499 0  0.2774038060536316 0.4620523034811876 0  0.312718096036646 0.6315745447073675 0  0.5391158637381588 0.2693361874564056 0  0.450825826093421 0.2801530819578711 0  0.6229130188365997 0.3063453685531499 0  0.386993110914335 0.3117836979010283 0  0.3342574020613424 0.3591223595691947 0  0.666848792823646 0.6576760955383422 0  0.5882513013121439 0.7099332502055963 0  0.4985850312814901 0.7233253009639554 0  0.7136567654036367 0.5807518518792359 0  0.7250808811423805 0.4876584844577784 0  0.426222021608802 0.7100477472642286 0  0.7066196892903268 0.4176170904578633 0  0.3630532707847968 0.6793092598989325 0  0.6764567644940768 0.3526057714711021 0  0.3059946375339932 0.3979810405123944 0  0.6299415874134798 0.6885975027422777 0  0.5446532193662289 0.7196065993814071 0  0.7237381396990012 0.5350372699263889 0  0.6941767138072269 0.6234318687024543 0  0.5841755836592958 0.2867453628717607 0  0.2869336688341975 0.5945254400412542 0  0.4956090268230087 0.2707404671609283 0  0.2694062387204846 0.506254755145879 0  0.6972824740078583 0.3942044257043217 0  0.6804368829937811 0.4130539311341848 0  0.6900672268611731 0.4377904106083845 0  0.6630919252996368 0.4325642412027584 0  0.6741258908390121 0.4593884564253976 0  0.6506098797605269 0.4552795086469747 0  0.6304520929123423 0.4314092919854703 0  0.6558638734763557 0.4812542527773242 0  0.6231801060566234 0.4756839160813814 0  0.640287900637085 0.5117020781395292 0  0.5906986687592282 0.4444950553290506 0  0.6051231249993744 0.398053413186144 0  0.5593246225651261 0.4148053766255277 0  0.5710019041140384 0.3695193503484467 0  0.5244027183488473 0.3876149048717542 0  0.534283579994148 0.3399527031832484 0  0.4907770990495398 0.3547699515165986 0  0.4848454398696387 0.4001273811767053 0  0.4499600833088044 0.3693681291840928 0  0.4436005178189752 0.4124970509127999 0  0.4185175337632047 0.3857359206514692 0  0.4038349515666664 0.4185989401265754 0  0.6023594016840149 0.3653540704521324 0  0.5032084122724141 0.3237288366472848 0  0.6762693759569411 0.5176783491507919 0  0.6513243328290923 0.546529474547141 0  0.6122010617643046 0.5468022864762329 0  0.6345550854153472 0.5874930246226827 0  0.5879851582420469 0.5819310309103809 0  0.6039711702930308 0.6188668284724738 0  0.5651462044292778 0.6224020165304873 0  0.588249354067401 0.6493600453615044 0  0.5420168785838005 0.653039157211258 0  0.5257982015141767 0.6155719788288074 0  0.497220028267823 0.6522709087601486 0  0.4835473191351008 0.6130814092970556 0  0.4660179317369806 0.6398234842116369 0  0.4433606856787901 0.616427630330195 0  0.422835462637194 0.6388117268263882 0  0.3985767271333234 0.616954730477044 0  0.4228486022172461 0.5769633999001383 0  0.3772298174578892 0.5780743774549801 0  0.4014511158092192 0.5397830272262235 0  0.3572998186027855 0.5429621736766829 0  0.3800903397686378 0.504797483702894 0  0.3380728436689069 
[...]
<PointData  Scalars="u"> 
<DataArray  type="Float64"  Name="u"  format="ascii">0.0000000000000000e+00  0.0000000000000000e+00  0.0000000000000000e+00  0.0000000000000000e+00  0.0000000000000000e+00  0.0000000000000000e+00  0.0000000000000000e+00  0.0000000000000000e+00  3.5258242091666619e-01  3.1534761356249136e-01  0.0000000000000000e+00  0.0000000000000000e+00  0.0000000000000000e+00  0.0000000000000000e+00  0.0000000000000000e+00  0.0000000000000000e+00  0.0000000000000000e+00  0.0000000000000000e+00  0.0000000000000000e+00  0.0000000000000000e+00  0.0000000000000000e+00  0.0000000000000000e+00  0.0000000000000000e+00  0.0000000000000000e+00  0.0000000000000000e+00  0.0000000000000000e+00  0.0000000000000000e+00  0.0000000000000000e+00  0.0000000000000000e+00  0.0000000000000000e+00  0.0000000000000000e+00  0.0000000000000000e+00  0.0000000000000000e+00  0.0000000000000000e+00  0.0000000000000000e+00  0.0000000000000000e+00  0.0000000000000000e+00  0.0000000000000000e+00  0.0000000000000000e+00  0.0000000000000000e+00  0.0000000000000000e+00  0.0000000000000000e+00  0.0000000000000000e+00  0.0000000000000000e+00  0.0000000000000000e+00  0.0000000000000000e+00  0.0000000000000000e+00  0.0000000000000000e+00  0.0000000000000000e+00  0.0000000000000000e+00  0.0000000000000000e+00  0.0000000000000000e+00  0.0000000000000000e+00  0.0000000000000000e+00  0.0000000000000000e+00  0.0000000000000000e+00  0.0000000000000000e+00  0.0000000000000000e+00  0.0000000000000000e+00  0.0000000000000000e+00  0.0000000000000000e+00  0.0000000000000000e+00  0.0000000000000000e+00  0.0000000000000000e+00  0.0000000000000000e+00  0.0000000000000000e+00  0.0000000000000000e+00  0.0000000000000000e+00  0.0000000000000000e+00  0.0000000000000000e+00  0.0000000000000000e+00  0.0000000000000000e+00  0.0000000000000000e+00  0.0000000000000000e+00  0.0000000000000000e+00  0.0000000000000000e+00  0.0000000000000000e+00  0.0000000000000000e+00  0.0000000000000000e+00  0.0000000000000000e+00  0.0000000000000000e+00  0.0000000000000000e+00  0.0000000000000000e+00  0.0000000000000000e+00  0.0000000000000000e+00  0.0000000000000000e+00  0.0000000000000000e+00  0.0000000000000000e+00  0.0000000000000000e+00  0.0000000000000000e+00  0.0000000000000000e+00  0.0000000000000000e+00  0.0000000000000000e+00  0.0000000000000000e+00  0.0000000000000000e+00  0.0000000000000000e+00  0.0000000000000000e+00  0.0000000000000000e+00  0.0000000000000000e+00  0.0000000000000000e+00  0.0000000000000000e+00  0.0000000000000000e+00  0.0000000000000000e+00  0.0000000000000000e+00  0.0000000000000000e+00  0.0000000000000000e+00  0.0000000000000000e+00  0.0000000000000000e+00  0.0000000000000000e+00  0.0000000000000000e+00  0.0000000000000000e+00  0.0000000000000000e+00  0.0000000000000000e+00  0.0000000000000000e+00  0.0000000000000000e+00  0.0000000000000000e+00  0.0000000000000000e+00  0.0000000000000000e+00  0.0000000000000000e+00  0.0000000000000000e+00  0.0000000000000000e+00  0.0000000000000000e+00  0.0000000000000000e+00  0.0000000000000000e+00  0.0000000000000000e+00  0.0000000000000000e+00  0.0000000000000000e+00  0.0000000000000000e+00  0.0000000000000000e+00  0.0000000000000000e+00  0.0000000000000000e+00  0.0000000000000000e+00  0.0000000000000000e+00  0.0000000000000000e+00  0.0000000000000000e+00  0.0000000000000000e+00  0.0000000000000000e+00  0.0000000000000000e+00  0.0000000000000000e+00  0.0000000000000000e+00  0.0000000000000000e+00  0.0000000000000000e+00  0.0000000000000000e+00  0.0000000000000000e+00  0.0000000000000000e+00  0.0000000000000000e+00  0.0000000000000000e+00  0.0000000000000000e+00  0.0000000000000000e+00  0.0000000000000000e+00  0.0000000000000000e+00  0.0000000000000000e+00  0.0000000000000000e+00  0.0000000000000000e+00  0.0000000000000000e+00  0.0000000000000000e+00  0.0000000000000000e+00  0.0000000000000000e+00  0.0000000000000000e+00  0.0000000000000000e+00  0.0000000000000000e+00  0.0000000000000000e+00  0.0000000000000000e+00  0.0000000000000000e+00  0.0000000000000000e+00  0.0000000000000000e+00  0.0000000000000000e+00  0.0000000000000000e+00  0.0000000000000000e+00  0.0000000000000000e+00  0.0000000000000000e+00  0.0000000000000000e+00  0.0000000000000000e+00  0.0000000000000000e+00  0.0000000000000000e+00  0.0000000000000000e+00  0.0000000000000000e+00  0.0000000000000000e+00  3.1546886038501021e-01  3.1583200571772013e-01  3.1631076653118395e-01  3.1686450972998248e-01  3.1749937577494780e-01  3.1792411009517130e-01  3.1825983306342298e-01  3.1917048809905119e-01  3.1919779457108227e-01  3.1875534714149278e-01  3.1844559177281706e-01  3.1813884197279824e-01  3.1786885537582221e-01  3.1742806130063239e-01  3.1704581157092399e-01  3.1692834950658993e-01  3.1690251547835385e-01  3.1667100797613001e-01  3.1665149912458818e-01  3.1700377811074087e-01  3.1655538660401622e-01  3.1672132621252708e-01  3.1702671658689530e-01  3.1687304521144333e-01  3.1669691281303758e-01  3.1673008346968673e-01  3.1729233306948318e-01  3.1733224025313828e-01  3.1794152702514794e-01  3.1857678740352541e-01  3.1812010663554918e-01  3.1810726565282316e-01  3.1875303182019310e-01  3.1903616279583941e-01  3.1878131095249890e-01  3.1812229911964279e-01  3.1745549316529681e-01  3.1700867878733857e-01  3.1659554680700192e-01  3.1596931822924645e-01  3.1541242003622205e-01  3.1535004456173771e-01  3.1528915559446369e-01  3.1557150641390341e-01  3.1641720752532504e-01  3.1722826168142709e-01  3.1780223169776134e-01  3.1861266691596879e-01  3.1928079138696708e-01  3.1964610063444715e-01  3.1980017399795879e-01  3.1962786092246287e-01  3.1901774901153440e-01  3.1876311045902411e-01  3.1833376487899179e-01  3.1754137768309376e-01  3.1729811083112741e-01  3.1669854244260376e-01  3.1588838675222480e-01  3.1546739866278700e-01  3.2991761392730773e-01  3.3127466827391616e-01  3.3160345077596337e-01  3.2965567747035074e-01  3.3135225744446728e-01  3.3075311341561753e-01  3.3266505286801412e-01  3.3298940913396669e-01  3.3067281222452782e-01  3.3136234506706191e-01  3.3207004383232736e-01  3.3105874445473898e-01  3.3160720863634569e-01  3.3241033149985028e-01  3.3232057934398868e-01  3.3154838321712454e-01  3.3021594965172757e-01  3.3260636260769583e-01  3.3103089447059503e-01  3.3185787062229133e-01  3.3144087566226238e-01  3.3072317063836298e-01  3.3098146146903257e-01  3.2994639157294675e-01  3.3068451574983598e-01  3.3021311362077110e-01  3.3209928677458528e-01  3.3511553838189834e-01  3.3518216695785613e-01  3.3827396743299459e-01  3.3814708014326122e-01  3.4038376539684950e-01  3.4162179599058601e-01  3.4046960016845584e-01  3.4456573409572672e-01  3.4279600297283119e-01  3.4732678460450994e-01  3.4142521890398986e-01  3.4770860447913576e-01  3.4123304597636922e-01  3.4665022117090061e-01  3.3878173014873186e-01  3.4159806617397243e-01  3.4769865134458622e-01  3.4223383990475148e-01  3.4683286077053987e-01  3.4211065125017076e-01  3.4411311183749393e-01  3.3824727861970000e-01  3.3728522434327163e-01  3.3791574862744989e-01  3.4048383443810204e-01  3.4570931261103705e-01  3.3975167941250412e-01  3.4576019996139318e-01  3.4029227507344467e-01  3.4280995763788435e-01  3.3815850573059408e-01  3.4013051483977436e-01  3.4580396538326291e-01  3.4108795208919140e-01  3.4585112080674763e-01  3.4197347414747536e-01  3.4375790099145670e-01  3.3994693654171204e-01  3.4029230501025559e-01  3.4683390071598547e-01  3.4133951886617470e-01  3.4692677228369645e-01  3.4074683791945803e-01  3.4546114153785329e-01  3.3920420125936557e-01  3.3826957742443442e-01  3.4105651649181562e-01  3.3612875078500548e-01  3.3602682443943233e-01  3.3946673602434596e-01  3.3743886319390626e-01  3.4944105754273752e-01  3.3624375431696163e-01  3.3682896399283596e-01  3.3403977479179447e-01  3.3642301462819579e-01  3.3806408495912743e-01  3.3520606926992524e-01  3.3673493094666912e-01  3.3700990941785491e-01  3.3705288913603909e-01  3.4950672281702194e-01  3.3651330728433076e-01  3.3512833297689226e-01  3.3427761437143888e-01  3.3599306197548051e-01  3.3746801679136385e-01  3.3784057092214015e-01  3.3552611004203459e-01  3.3657928297535922e-01  3.3601168010875299e-01  3.3526525265588308e-01  3.3715907424864722e-01  3.3822796037080488e-01  3.3524797234315140e-01  3.3477983277460083e-01  3.3738997812901289e-01  3.3469344805290618e-01  3.4976026888217848e-01  3.3401452749398919e-01  3.4962763029964050e-01  3.3383275163305276e-01  3.3802738749130068e-01  3.3546679807638879e-01  3.3421855312703924e-01  3.5055010275812176e-01  3.3479411824947092e-01  3.3384868333334006e-01  3.3385253082812527e-01  3.3201369176270601e-01  3.4147101667032403e-01  3.3770151103461110e-01  3.3628332203065270e-01  3.3527650842485612e-01  3.3206389632198657e-01  3.5028803753086152e-01  3.3470292657396417e-01  3.3354368098443160e-01  3.3357628302959852e-01  3.3562123639174329e-01  3.3202192621388721e-01  3.3268887905357436e-01  3.3156331091661717e-01  3.3232783807910571e-01  3.3199001088866759e-01  3.3252291459943406e-01  3.4601239597596900e-01  3.3090721190613953e-01  3.3241015538986551e-01  3.3557018545291029e-01  3.3324737449951680e-01  3.3242080558011522e-01  3.3160188534796853e-01  3.3673411483134352e-01  3.3364939068478244e-01  3.3204232112388948e-01  3.3801351470722263e-01  3.3188068156939149e-01  3.3107660416976248e-01  3.3335972665905644e-01  3.3553136981446019e-01  3.3120988929271439e-01  3.3390156897374274e-01  3.3463362287014004e-01  3.3093401159737001e-01  3.3486955266020990e-01  3.3109378823535923e-01  3.3553712515702605e-01  3.3306047359254509e-01  3.2997535406025352e-01  3.3023419569922968e-01  3.3015721265281167e-01  3.3128155252470237e-01  3.3037876689947532e-01  3.3307344640876740e-01  3.3549244273020096e-01  3.4909447334374544e-01  3.3413575105307675e-01  3.4903346002430846e-01  3.2999723904711215e-01  3.3232057674999971e-01  3.3260005422727940e-01  3.2897013436545947e-01  3.3024153809223811e-01  3.3338346541418662e-01  3.3174453755904115e-01  3.4997225961219569e-01  3.3035640026924995e-01  3.3168680611215640e-01  3.3471150348332485e-01  3.3160329868276656e-01  3.3891466817846538e-01  3.4870117593353467e-01  3.3463644098782874e-01  3.5236040994315709e-01  3.2987754242129552e-01  3.3376801834737624e-01  3.3380550877315401e-01  3.3247622569836205e-01  3.2939454745967378e-01  3.3437235899883927e-01  3.3580484320678983e-01  3.3428756637871115e-01  3.3682370305300990e-01  3.3533507902638210e-01  3.5054797237371937e-01  3.3466157140277514e-01  3.3300703386464836e-01  3.3307092063984922e-01  3.3338683795020746e-01  3.5170941447530885e-01  3.3268410609506982e-01  3.5190700291205457e-01  3.2823813930746115e-01  3.3976808185465041e-01  3.2969195796831047e-01  3.3348559258814742e-01  3.3707907543740473e-01  3.3327762961258900e-01  3.3558317464735204e-01  3.2870460214694280e-01  3.3612407699609220e-01  3.3827891965358042e-01  3.5182346020740313e-01  3.3474332378202670e-01  3.3895176692084672e-01  3.3299768303715233e-01  3.3541448821166203e-01  3.3584034008387514e-01  3.3755416504785468e-01  3.3609868222395123e-01  3.3729909850282747e-01  3.3590449238760411e-01  3.3982357618638065e-01  3.3530227798325379e-01  3.3486859399786728e-01  3.3269551852669771e-01  3.3883407184575098e-01  3.3172121029552815e-01  3.3745753849211874e-01  3.4698257778127234e-01  3.3711044950530383e-01  3.3910129986452503e-01  3.3182401062786904e-01  3.4005641672301551e-01  3.5200620681000178e-01  3.3667103926330449e-01  3.3650505429567523e-01  3.3985030673347044e-01  3.3770434598862881e-01  3.3367940988709854e-01  3.3787815620361683e-01  3.3740114092948897e-01  3.3283383281031298e-01  3.3242435631377798e-01  3.3796452778732650e-01  2.9242644071658302e-01  2.8714830440964112e-01  2.8172143815699940e-01  2.9028371667612340e-01  2.9268486414008871e-01  2.9101628176939687e-01  2.9477111964854202e-01  2.9658006341668314e-01  2.8729870614265446e-01  2.8848114481095682e-01  2.8676357412011694e-01  2.8426095559047926e-01  2.8492991692747055e-01  2.8473185124288913e-01  1.4894910532806775e-02  2.8915869292637664e-01  1.7693013951634917e-02  1.5273735044860581e-02  2.9367344505482029e-01  1.7437948625713899e-02  1.4914452598708657e-02  1.5998055572503670e-02  1.6493734997638773e-02  2.8830293721302808e-01  1.7228348524048549e-02  2.8869155391381568e-01  2.8830695391764488e-01  2.8495874396896359e-01  2.8989646951827086e-01  2.8407687518006114e-01  2.8836540196452304e-01  3.0475840098626208e-02  2.5855765333295162e-02  2.6815639516770545e-02  2.7115626246143013e-02  2.8810089741274952e-02  3.0262315868637910e-02  3.1572866172896133e-02  3.0409604692379709e-02  3.0711096497901585e-02  3.6014557915436660e-02  3.3847545783833297e-02  3.7260131246832542e-02  5.7667719883781245e-03  5.9401914082090864e-03  6.6050947446489776e-03  7.3455852226668398e-03  6.3024228637651464e-03  5.8902408903803577e-03  6.6300727463285136e-03  6.8122319424092073e-03  2.8088605275573747e-01  2.4734918984147794e-01  2.4619982842389093e-01  2.0787084658091629e-01  2.0579239237115771e-01  2.0408299517869008e-01  1.6595346766135113e-01  1.6989875068620600e-01  1.2801841275490353e-01  1.2622439287683201e-01  1.6205804599942647e-01  1.2118197712023288e-01  1.5287132566316441e-01  1.1288946012456812e-01  1.4142556191028094e-01  1.0297942655625923e-01  1.2697114322873618e-01  9.1766472244676683e-02  1.0968941369283738e-01  7.7603500281457946e-02  9.1229589869088412e-02  1.2583664622023166e-01  1.0418913189458968e-01  1.4081256409457862e-01  1.0967116795477222e-01  7.1938169775900951e-02  1.5167762167710086e-01  1.2035534460437551e-01  1.5605676360481990e-01  1.2247453962408407e-01  1.6272657739844251e-01  9.0216475856323447e-02  1.2227564107460072e-01  1.6355955136504985e-01  1.1900390373864635e-01  1.5079042282353189e-01  1.7563156554805881e-01  1.6986674548247030e-01  6.8284949809287926e-02  1.3316523986136566e-01  1.9253980783451680e-01  1.0789406347811070e-01  1.3898335064963782e-01  9.2769787556828520e-02  2.0024728627094909e-01  1.8470730843579450e-01  1.7254960076669298e-01  1.2852316162002753e-01  1.6287784479786649e-01  1.1442404008117396e-01  1.3850811313207764e-01  9.6220367818466421e-02  1.1784655256031455e-01  1.6156628371648329e-01  1.3848003264946715e-01  9.7861781306348580e-02  1.1509493751974155e-01  7.8480957697870821e-02  9.1641984906652998e-02  1.3436676448944906e-01  1.0195550560355457e-01  1.3743105540704620e-01  1.0805340280288533e-01  1.3992825963904940e-01  1.1037843118758636e-01  1.4649232545413010e-01  1.0885203127502167e-01  1.3681620728412580e-01  8.3136987804966991e-02  1.0130040184503396e-01  1.2641915802841749e-01  9.0082308866858793e-02  1.1183927339554976e-01  7.7540190085089944e-02  1.5242918006496264e-01  1.3433893194206173e-01  1.7966319885524024e-01  1.8289588620569594e-01  1.6179896657495524e-01  1.7471053204552003e-01  1.1469883623879049e-01  1.3206338932499642e-01  6.9712960836637555e-02  5.8927887662753815e-02  1.8469470647816377e-01  9.0685284090551210e-02  1.0536392100951385e-01  1.4877601441206909e-01  1.1993083792509093e-01  1.6896151175807594e-01  1.3239752696032803e-01  1.7423867162041604e-01  1.4512799329338238e-01  1.0179910031626313e-01  1.0920614278499995e-01  1.4718651716679176e-01  1.1434272899918811e-01  1.5024094201263122e-01  1.1727093783787683e-01  1.5417053490216640e-01  1.1664224731362696e-01  1.4607007088869262e-01  1.1086842972931193e-01  1.3691133254049676e-01  1.0159189234122475e-01  1.2425399536753470e-01  8.9846428231953060e-02  1.0843135304668680e-01  8.8383790974968388e-02  7.0826451651999189e-02  6.1170026778293661e-02  1.4500658198342556e-01  1.2618302517999549e-01  9.2374973670450319e-02  1.0543628991176771e-01  1.4278540234017387e-01  1.1535868392936707e-01  7.7192370996645970e-02  1.7474347251825403e-01  1.6318396912218738e-01  1.2626180719653590e-01  4.6299469847796829e-02  1.7330166360777677e-01  1.3212390506371960e-01  3.8615862778221238e-02  1.7447485269988092e-01  1.3355058078200938e-01  1.7216030334299010e-01  1.3067994647776748e-01  1.7282085092399690e-01  1.2159522142253303e-01  1.5336275093924523e-01  1.1115251960130830e-01  1.4282200828131469e-01  9.7754031517251525e-02  1.0028434870811125e-01  1.2833093807630525e-01  1.7345201718216990e-01  1.5473257534932250e-01  1.1379291780991696e-01  1.3527561522087170e-01  9.7251812598429188e-02  1.1462831198402365e-01  1.5352163571977154e-01  1.2902960468984961e-01  9.4026683131407524e-02  1.0553647338026874e-01  7.4586426917789536e-02  8.2796834153293766e-02  1.1427310374835051e-01  8.7969123099186253e-02  1.1873861384451134e-01  8.9513500911303029e-02  1.1961227105419540e-01  5.6424165770360732e-02  1.5258479663572613e-01  1.5834741474845399e-01  1.1777732023556393e-01  1.5001787741911085e-01  1.6886555844862450e-01  1.1082854699958654e-01  1.4047567778409939e-01  8.3998917256832811e-02  6.3307326055015448e-02  1.8501368885464400e-01  1.9274672101397231e-01  1.8930309723356001e-01  1.7534339837089824e-01  1.3269872121449452e-01  1.9119197163614879e-01  6.3893257406100287e-02  2.3048582884110064e-01  2.0119286761112140e-01  5.9879740645141517e-02  1.7955782986689045e-01  5.0216476816662067e-02  2.2117944853889046e-01  2.1113495405681959e-01  7.1445281728371210e-02  1.9685602855317488e-01  2.1258356335225859e-01  4.9957648910417943e-02  2.0730095035448273e-01  6.2587495537793261e-02  1.9390068505979513e-01  1.9910730111375613e-01  1.9937580503628952e-01  8.6850725571647455e-02  7.7209986079685711e-02  6.4348513960547513e-02  8.5263672891304376e-02  9.2583312087016617e-02  2.2338694338861348e-01  2.1149559843277096e-01  2.3051075976643459e-01  2.2844278567577567e-01  2.4111992230268486e-01  2.2740831600383429e-01  2.8984829011079117e-02  2.9902682494415557e-02  2.1379477180024684e-02  9.5088863237817831e-02  2.3361533552303831e-01  2.5693880489351095e-01  1.8130923124585496e-01  7.2737942715375245e-02  6.3891524921979678e-02  1.3023137861855896e-01  1.9155103171400970e-01  2.1352647885225798e-01  9.3100459328997603e-02  2.3398558064824126e-01  2.5540909427971892e-01  2.1694880117582357e-01  2.1223485878069467e-01  2.2769602678712877e-01  2.5495171872261652e-01  2.1828043929418300e-01  2.2011944956035237e-01  2.2160642606503358e-01  2.5224156423733157e-01  2.4638527933301965e-01  7.5872181499708896e-02  5.4253857435723626e-02  2.6801023151427500e-01  7.9966527173316260e-02  2.3669523797388906e-01  2.2975925618625412e-01  1.9622046275231847e-01  2.6300541133284472e-01  4.6847066338377007e-02  2.4208562946209691e-01  3.6723886670238987e-02  3.8053302395247464e-02  2.4806461378401592e-01  3.9586859143644841e-02  4.1324365679951028e-02  3.7471659892033660e-02  6.8237475899959113e-02  7.8289975965185263e-02  6.0209649603914020e-02  2.8311129708928212e-01  2.6603110436040373e-01  2.5064026528939826e-01  2.3038993478717504e-02  2.5308820883131883e-02  4.6089267986483641e-02  3.8583633865534969e-02  4.1464639751665609e-02  5.2729367488070562e-02  3.2399971343163060e-02  4.6864372713313548e-02  2.1199233510290841e-01  2.8626371465882144e-01  2.4777239187534578e-01  2.4905424217440394e-01  2.8777017856734355e-01  2.5359613195814806e-01  2.5140590623881881e-01  2.5109723562359393e-01  2.8521372929616801e-01  2.8177012003444596e-01  2.5133698827129286e-01  2.5238754293272625e-01  2.4323767842103769e-01  2.1508584377883910e-01  1.6731249455814781e-01  2.1839094856001198e-01  2.2340172954180756e-01  2.5911188083428155e-01  1.9272690661733485e-01  2.3602746212438835e-01  2.0711316121787046e-01  2.4945746293976059e-01  5.4646622498407370e-02  2.8522347079627786e-01  2.5302270590937098e-01  2.4752022401463883e-01  2.1804391070079929e-01  2.1470411256364536e-01  1.9370964078120018e-01  3.3620560517351843e-02  2.8492456083076789e-01  2.4656632184970689e-01  1.8189789293689063e-01  2.8692751954719647e-01  1.9586235535252863e-01  2.3149286925584686e-01  2.3106392925350641e-01  2.3477466976510750e-01  2.6733707144640706e-01  2.6380739258980584e-01  2.2614641138233749e-01  2.8272363377896903e-01  2.5711594042908070e-01  2.5063448101609714e-01  2.5798156883754503e-01  2.8974926184834732e-01  1