<?xml version="1.0"?>
<VTKFile type="UnstructuredGrid"  version="0.1"  >
<UnstructuredGrid>
<Piece  NumberOfPoints="1235" NumberOfCells="2372">
<Points>
<DataArray  type="Float64"  NumberOfComponents="3"  format="ascii">0 0 0  0 1 0  1 1 0  1 0 0  1.1 -0.1 0  -0.1 -0.1 0  1.1 1.1 0  -0.1 1.1 0  0.5025214127071199 0.5024343490780923 0  0.2552960663659278 0.5414039735685509 0  0 0.9499999999997918 0  0 0.8999999999995836 0  0 0.8499999999996529 0  0 0.7999999999999998 0  0 0.7500000000003466 0  0 0.7000000000006934 0  0 0.6500000000010401 0  0 0.6000000000013869 0  0 0.5500000000017335 0  0 0.5000000000020587 0  0 0.4500000000018723 0  0 0.4000000000016644 0  0 0.3500000000014564 0  0 0.3000000000012483 0  0 0.2500000000010403 0  0 0.2000000000008322 0  0 0.1500000000006241 0  0 0.100000000000416 0  0 0.05000000000020799 0  0.04999999999989965 0 0  0.09999999999981467 0 0  0.1499999999997036 0 0  0.1999999999995579 0 0  0.2499999999994121 0 0  0.2999999999992664 0 0  0.3499999999991206 0 0  0.3999999999989749 0 0  0.4499999999988292 0 0  0.4999999999986943 0 0  0.5499999999988151 0 0  0.5999999999989468 0 0  0.6499999999990784 0 0  0.69999999999921 0 0  0.7499999999993417 0 0  0.7999999999994734 0 0  0.8499999999996051 0 0  0.8999999999997368 0 0  0.9499999999998684 0 0  1 0.04999999999989965 0  1 0.09999999999981467 0  1 0.1499999999997036 0  1 0.1999999999995579 0  1 0.2499999999994121 0  1 0.2999999999992664 0  1 0.3499999999991206 0  1 0.3999999999989749 0  1 0.4499999999988292 0  1 0.4999999999986943 0  1 0.5499999999988151 0  1 0.5999999999989468 0  1 0.6499999999990784 0  1 0.69999999999921 0  1 0.7499999999993417 0  1 0.7999999999994734 0  1 0.8499999999996051 0  1 0.8999999999997368 0  1 0.9499999999998684 0  0.9499999999997918 1 0  0.8999999999995836 1 0  0.8499999999996529 1 0  0.7999999999999998 1 0  0.7500000000003466 1 0  0.7000000000006934 1 0  0.6500000000010401 1 0  0.6000000000013869 1 0  0.5500000000017335 1 0  0.5000000000020587 1 0  0.4500000000018723 1 0  0.4000000000016644 1 0  0.3500000000014564 1 0  0.3000000000012483 1 0  0.2500000000010403 1 0  0.2000000000008322 1 0  0.1500000000006241 1 0  0.100000000000416 1 0  0.05000000000020799 1 0  -0.1 1.05000000000004 0  -0.1 1.000000000000079 0  -0.1 0.9500000000001624 0  -0.1 0.9000000000003032 0  -0.1 0.850000000000444 0  -0.1 0.8000000000005848 0  -0.1 0.7500000000007256 0  -0.1 0.7000000000008665 0  -0.1 0.6500000000010508 0  -0.1 0.6000000000012352 0  -0.1 0.5500000000014196 0  -0.1 0.500000000001539 0  -0.1 0.4500000000014195 0  -0.1 0.4000000000013 0  -0.1 0.3500000000011588 0  -0.1 0.3000000000010178 0  -0.1 0.2500000000008986 0  -0.1 0.2000000000007579 0  -0.1 0.1500000000006174 0  -0.1 0.1000000000005272 0  -0.1 0.05000000000040083 0  -0.1 2.671196597248127e-13 0  -0.1 -0.0499999999998666 0  -0.0500000000000906 -0.1 0  -1.730560139634463e-13 -0.1 0  0.04999999999975802 -0.1 0  0.09999999999961506 -0.1 0  0.1499999999994613 -0.1 0  0.199999999999302 -0.1 0  0.2499999999991446 -0.1 0  0.2999999999990088 -0.1 0  0.3499999999988296 -0.1 0  0.3999999999986936 -0.1 0  0.4499999999985143 -0.1 0  0.4999999999984002 -0.1 0  0.5499999999985247 -0.1 0  0.5999999999986493 -0.1 0  0.6499999999987955 -0.1 0  0.6999999999989417 -0.1 0  0.7499999999990659 -0.1 0  0.7999999999992116 -0.1 0  0.8499999999993573 -0.1 0  0.8999999999994526 -0.1 0  0.949999999999584 -0.1 0  0.9999999999997226 -0.1 0  1.049999999999861 -0.1 0  1.1 -0.0500000000000906 0  1.1 -1.730560139634463e-13 0  1.1 0.04999999999975802 0  1.1 0.09999999999961506 0  1.1 0.1499999999994613 0  1.1 0.199999999999302 0  1.1 0.2499999999991446 0  1.1 0.2999999999990088 0  1.1 0.3499999999988296 0  1.1 0.3999999999986936 0  1.1 0.4499999999985143 0  1.1 0.4999999999984002 0  1.1 0.5499999999985247 0  1.1 0.5999999999986493 0  1.1 0.6499999999987955 0  1.1 0.6999999999989417 0  1.1 0.7499999999990659 0  1.1 0.7999999999992116 0  1.1 0.8499999999993573 0  1.1 0.8999999999994526 0  1.1 0.949999999999584 0  1.1 0.9999999999997226 0  1.1 1.049999999999861 0  1.05000000000004 1.1 0  1.000000000000079 1.1 0  0.9500000000001624 1.1 0  0.9000000000003032 1.1 0  0.850000000000444 1.1 0  0.8000000000005848 1.1 0  0.7500000000007256 1.1 0  0.7000000000008665 1.1 0  0.6500000000010508 1.1 0  0.6000000000012352 1.1 0  0.5500000000014196 1.1 0  0.500000000001539 1.1 0  0.4500000000014195 1.1 0  0.4000000000013 1.1 0  0.3500000000011588 1.1 0  0.3000000000010178 1.1 0  0.2500000000008986 1.1 0  0.2000000000007579 1.1 0  0.1500000000006174 1.1 0  0.1000000000005272 1.1 0  0.05000000000040083 1.1 0  2.671196597248127e-13 1.1 0  -0.0499999999998666 1.1 0  0.260555713651599 0.5654089965940134 0  0.2680781890434119 0.5887744408474085 0  0.2779722309854958 0.6116076859192833 0  0.2901604839350814 0.6335475312571669 0  0.3046572355436993 0.6541801099111121 0  0.3215432024561708 0.6734694868159153 0  0.3403999630231751 0.6909863668618664 0  0.3612998596125476 0.7065371422277796 0  0.3836959740305125 0.7198594474635926 0  0.4073138443769784 0.7308131212144935 0  0.4318069926081174 0.7391971778186364 0  0.4571846625952477 0.7449121595727973 0  0.4829318600468739 0.7480063965384809 0  0.5088852917900463 0.7484307200898133 0  0.534592020949495 0.7461756895802194 0  0.5599482498752097 0.7412572762271512 0  0.584535254354275 0.733803580264591 0  0.6082935457475054 0.7238948823288383 0  0.6308004807803453 0.7116626578453902 0  0.6519802646275047 0.697139765738043 0  0.6715136428240606 0.6805338013406985 0  0.6890763044587749 0.6620966237188006 0  0.704689088632413 0.6418067823079902 0  0.7181126754717313 0.6200507278163716 0  0.7292380045920768 0.5969723387730177 0  0.7378652022070548 0.5729972538141561 0  0.743987711343753 0.5481370514318562 0  0.7475252343436719 0.5226720315344509 0  0.7484266198521209 0.4970004449245037 0  0.7467192234821635 0.4711146102609518 0  0.7424854926884157 0.4455221838507901 0  0.7355961789670133 0.4205812375802878 0  0.725975874550647 0.3963653689587417 0  0.7138535402209021 0.3731873549683008 0  0.6994097710611454 0.3514442212284857 0  0.6828428521252001 0.3313593603923325 0  0.6643602886489681 0.313103111239467 0  0.6443934502819453 0.2972114602420573 0  0.6229007297433085 0.2834839864803177 0  0.6003288707885011 0.27217505150491 0  0.5768699153871435 0.2632190061737604 0  0.5528157611436424 0.256719887167851 0  0.5284895023443011 0.2527841226301873 0  0.5037924044459883 0.2512386684278974 0  0.4789093126499131 0.2521780236468216 0  0.4538580877376546 0.2557237426865873 0  0.4290560146208373 0.2618631792897795 0  0.4047908122757003 0.2706159534204441 0  0.3813977739542406 0.2818937745411071 0  0.3591653940588594 0.2955855224928282 0  0.3383631527082749 0.311526045933336 0  0.3193168748953778 0.3295074378341825 0  0.3022860686937616 0.3493660875563901 0  0.2875809917830702 0.3708348602033949 0  0.2752616157509213 0.3937502643129105 0  0.2655133388066153 0.4176496873064667 0  0.2584141538271069 0.4422742218180821 0  0.2539150308878394 0.467314505018394 0  0.2519508115095719 0.4923011737267987 0  0.2524408887957545 0.517020787480814 0  0.2778448245706837 0.5488826430580168 0  0.2776329065513709 0.4601945902766517 0  0.3145324860528719 0.6304373809205098 0  0.5368544441748718 0.2732099771576242 0  0.4483913299545372 0.2795592258453558 0  0.6213388939024861 0.3083988332748934 0  0.3827505817369479 0.3077347006745821 0  0.3290351172713771 0.354555823783361 0  0.6648704080541452 0.6559142186100401 0  0.586633020236458 0.7089257389600767 0  0.4971517461159697 0.7251145373706982 0  0.7126850682301857 0.5797073507895788 0  0.7268195888376143 0.4871023000625908 0  0.4245748498927264 0.713182616421311 0  0.7092111465372525 0.4168685256860878 0  0.3621319112695356 0.6809276363183662 0  0.6773130442614055 0.352440489790103 0  0.3018911406559619 0.3943751059675732 0  0.6280739871769664 0.686952296683816 0  0.5432123956253953 0.7198097078912776 0  0.7240211096175696 0.5343877124900734 0  0.6924458790078086 0.621927281052732 0  0.5819209473514356 0.290126054416002 0  0.2907867472889857 0.5923651199521429 0  0.4935858971303769 0.2730250971817431 0  0.2726854799786851 0.5046394690909286 0  0.6995427075484894 0.3935113221176508 0  0.6822999923140228 0.4125434633642476 0  0.6920630936731564 0.4371209624291461 0  0.6644752300260854 0.4321103879701418 0  0.6755059004171138 0.4587047090815899 0  0.6515543939158913 0.4547380509234172 0  0.631108582567697 0.4312450356299252 0  0.6565924068872789 0.4805124168979522 0  0.6234765760868466 0.4751155710870135 0  0.6403713244737553 0.5108275742167234 0  0.5905808260533451 0.4443699631247626 0  0.6051152111639148 0.398560079777328 0  0.5585432438473216 0.4150842689847006 0  0.5700055063308835 0.3707034558505889 0  0.5227854963317896 0.3880247601247874 0  0.5323409084521354 0.3415429480887791 0  0.4883010643033885 0.3549979272834468 0  0.4827946980994229 0.399604145769003 0  0.4470145263667865 0.3680900961482994 0  0.4413081621502579 0.4109173582420492 0  0.4154275758892553 0.3834339219224627 0  0.4014187839407933 0.4160976137300332 0  0.6019027335113637 0.3664940155501484 0  0.5007403935322655 0.3249375137755007 0  0.6766054217772048 0.5167286644599522 0  0.6509120301874284 0.5454680519506601 0  0.6115773795091137 0.5458973046229908 0  0.6334484059426643 0.5863202046462215 0  0.5869144575206788 0.581128893680611 0  0.6025290370363482 0.6178641225346992 0  0.5637428153793349 0.6218940767758309 0  0.5866207957833829 0.6485291016875918 0  0.5404913730091928 0.6530403663399198 0  0.5245734702422613 0.6155684090667943 0  0.4958848993858423 0.6530965002495936 0  0.4826197555015644 0.6135233066833622 0  0.4650094460780364 0.6408766053603384 0  0.4428508365852739 0.617156775246644 0  0.4223195649068035 0.640044201986701 0  0.398808204328286 0.6175591612613303 0  0.4229439138677034 0.5768441429348188 0  0.3783297621210838 0.5775706049937099 0  0.4018492822617261 0.5387836268965789 0  0.3588002684573384 0.54154490207981 0  0.3803259220504784 0.5029768145178283 0  0.3393289392288018
[...]
<PointData  Scalars="u"> 
<DataArray  type="Float64"  Name="u"  format="ascii">0.0000000000000000e+00  0.0000000000000000e+00  0.0000000000000000e+00  0.0000000000000000e+00  0.0000000000000000e+00  0.0000000000000000e+00  0.0000000000000000e+00  0.0000000000000000e+00  3.5336360769714553e-01  3.1828258079184107e-01  0.0000000000000000e+00  0.0000000000000000e+00  0.0000000000000000e+00  0.0000000000000000e+00  0.0000000000000000e+00  0.0000000000000000e+00  0.0000000000000000e+00  0.0000000000000000e+00  0.0000000000000000e+00  0.0000000000000000e+00  0.0000000000000000e+00  0.0000000000000000e+00  0.0000000000000000e+00  0.0000000000000000e+00  0.0000000000000000e+00  0.0000000000000000e+00  0.0000000000000000e+00  0.0000000000000000e+00  0.0000000000000000e+00  0.0000000000000000e+00  0.0000000000000000e+00  0.0000000000000000e+00  0.0000000000000000e+00  0.0000000000000000e+00  0.0000000000000000e+00  0.0000000000000000e+00  0.0000000000000000e+00  0.0000000000000000e+00  0.0000000000000000e+00  0.0000000000000000e+00  0.0000000000000000e+00  0.0000000000000000e+00  0.0000000000000000e+00  0.0000000000000000e+00  0.0000000000000000e+00  0.0000000000000000e+00  0.0000000000000000e+00  0.0000000000000000e+00  0.0000000000000000e+00  0.0000000000000000e+00  0.0000000000000000e+00  0.0000000000000000e+00  0.0000000000000000e+00  0.0000000000000000e+00  0.0000000000000000e+00  0.0000000000000000e+00  0.0000000000000000e+00  0.0000000000000000e+00  0.0000000000000000e+00  0.0000000000000000e+00  0.0000000000000000e+00  0.0000000000000000e+00  0.0000000000000000e+00  0.0000000000000000e+00  0.0000000000000000e+00  0.0000000000000000e+00  0.0000000000000000e+00  0.0000000000000000e+00  0.0000000000000000e+00  0.0000000000000000e+00  0.0000000000000000e+00  0.0000000000000000e+00  0.0000000000000000e+00  0.0000000000000000e+00  0.0000000000000000e+00  0.0000000000000000e+00  0.0000000000000000e+00  0.0000000000000000e+00  0.0000000000000000e+00  0.0000000000000000e+00  0.0000000000000000e+00  0.0000000000000000e+00  0.0000000000000000e+00  0.0000000000000000e+00  0.0000000000000000e+00  0.0000000000000000e+00  0.0000000000000000e+00  0.0000000000000000e+00  0.0000000000000000e+00  0.0000000000000000e+00  0.0000000000000000e+00  0.0000000000000000e+00  0.0000000000000000e+00  0.0000000000000000e+00  0.0000000000000000e+00  0.0000000000000000e+00  0.0000000000000000e+00  0.0000000000000000e+00  0.0000000000000000e+00  0.0000000000000000e+00  0.0000000000000000e+00  0.0000000000000000e+00  0.0000000000000000e+00  0.0000000000000000e+00  0.0000000000000000e+00  0.0000000000000000e+00  0.0000000000000000e+00  0.0000000000000000e+00  0.0000000000000000e+00  0.0000000000000000e+00  0.0000000000000000e+00  0.0000000000000000e+00  0.0000000000000000e+00  0.0000000000000000e+00  0.0000000000000000e+00  0.0000000000000000e+00  0.0000000000000000e+00  0.0000000000000000e+00  0.0000000000000000e+00  0.0000000000000000e+00  0.0000000000000000e+00  0.0000000000000000e+00  0.0000000000000000e+00  0.0000000000000000e+00  0.0000000000000000e+00  0.0000000000000000e+00  0.0000000000000000e+00  0.0000000000000000e+00  0.0000000000000000e+00  0.0000000000000000e+00  0.0000000000000000e+00  0.0000000000000000e+00  0.0000000000000000e+00  0.0000000000000000e+00  0.0000000000000000e+00  0.0000000000000000e+00  0.0000000000000000e+00  0.0000000000000000e+00  0.0000000000000000e+00  0.0000000000000000e+00  0.0000000000000000e+00  0.0000000000000000e+00  0.0000000000000000e+00  0.0000000000000000e+00  0.0000000000000000e+00  0.0000000000000000e+00  0.0000000000000000e+00  0.0000000000000000e+00  0.0000000000000000e+00  0.0000000000000000e+00  0.0000000000000000e+00  0.0000000000000000e+00  0.0000000000000000e+00  0.0000000000000000e+00  0.0000000000000000e+00  0.0000000000000000e+00  0.0000000000000000e+00  0.0000000000000000e+00  0.0000000000000000e+00  0.0000000000000000e+00  0.0000000000000000e+00  0.0000000000000000e+00  0.0000000000000000e+00  0.0000000000000000e+00  0.0000000000000000e+00  0.0000000000000000e+00  0.0000000000000000e+00  0.0000000000000000e+00  0.0000000000000000e+00  0.0000000000000000e+00  0.0000000000000000e+00  0.0000000000000000e+00  0.0000000000000000e+00  0.0000000000000000e+00  0.0000000000000000e+00  0.0000000000000000e+00  0.0000000000000000e+00  0.0000000000000000e+00  3.1841726320109365e-01  3.1846897847071148e-01  3.1850294073094659e-01  3.1852074557751126e-01  3.1859175964751713e-01  3.1847108640048133e-01  3.1828085101608350e-01  3.1882388624449809e-01  3.1861693732036817e-01  3.1802576429159130e-01  3.1771710174065798e-01  3.1760858021224214e-01  3.1767057159094636e-01  3.1762807666016979e-01  3.1764457527980106e-01  3.1783070708528888e-01  3.1804044969986922e-01  3.1795304370932581e-01  3.1800616879649130e-01  3.1839037625012717e-01  3.1797222394418689e-01  3.1811430593941686e-01  3.1836225002519830e-01  3.1811325028141346e-01  3.1779577775633366e-01  3.1764593374468669e-01  3.1795712818573879e-01  3.1772541352793998e-01  3.1798894898398750e-01  3.1833183547620070e-01  3.1762493116873852e-01  3.1749657592808828e-01  3.1824591178718381e-01  3.1873430319907192e-01  3.1879443342443464e-01  3.1856135679801878e-01  3.1833632629765224e-01  3.1835492010013283e-01  3.1830842203396847e-01  3.1808436343440427e-01  3.1788528563297730e-01  3.1794616162133366e-01  3.1784850487435823e-01  3.1778279298372458e-01  3.1804287542072113e-01  3.1817809109612449e-01  3.1809230055261445e-01  3.1837239341650680e-01  3.1862911061153654e-01  3.1869594825481551e-01  3.1863488462147266e-01  3.1833987604824809e-01  3.1772991723499644e-01  3.1770705577832237e-01  3.1768925451707469e-01  3.1747456001951968e-01  3.1793725963108116e-01  3.1805586272094966e-01  3.1796468806253719e-01  3.1812817237686158e-01  3.3181311156137266e-01  3.3223607352833950e-01  3.3279724767793600e-01  3.3138693461186219e-01  3.3210984529082155e-01  3.3203203799285386e-01  3.3255420691053794e-01  3.3264001938186027e-01  3.3181816972723244e-01  3.3232642794376477e-01  3.3238948527615803e-01  3.3192806909286765e-01  3.3186286150243838e-01  3.3238635014156465e-01  3.3241187459221266e-01  3.3189907110816552e-01  3.3071086247444276e-01  3.3255418104627837e-01  3.3214273400677174e-01  3.3254360173983055e-01  3.3202587048453874e-01  3.3179158055610064e-01  3.3256111768688118e-01  3.3167119615165397e-01  3.3205608828598365e-01  3.3181745187981815e-01  3.3227616291742462e-01  3.3539499854459559e-01  3.3540398387926651e-01  3.3865606561830286e-01  3.3850724859836034e-01  3.4084516118191815e-01  3.4218720569820055e-01  3.4096931714170670e-01  3.4518264835160301e-01  3.4343467436535879e-01  3.4804732682474648e-01  3.4219027307687477e-01  3.4855063308803325e-01  3.4225173831413758e-01  3.4755149310833500e-01  3.3999139849294879e-01  3.4247611253368909e-01  3.4845854444446528e-01  3.4277499729265243e-01  3.4741602456320697e-01  3.4246889602747693e-01  3.4454992132600354e-01  3.3919834783499969e-01  3.3840892385764365e-01  3.3848835550162470e-01  3.4123090429462299e-01  3.4648590975023563e-01  3.4065702414409887e-01  3.4659261232410626e-01  3.4122402422192172e-01  3.4363574717388057e-01  3.3908027925723516e-01  3.4087909244099235e-01  3.4652781631491913e-01  3.4162065604484798e-01  3.4648333740869663e-01  3.4246885833106644e-01  3.4435219270932454e-01  3.4041392456602559e-01  3.4097468119579954e-01  3.4762018838657843e-01  3.4233315933920150e-01  3.4782976021222128e-01  3.4189855918008694e-01  3.4636300807740272e-01  3.4036927794442701e-01  3.3949563350635670e-01  3.4178627481917134e-01  3.3684220738241327e-01  3.3684582586959361e-01  3.3961913527475324e-01  3.3743788705078126e-01  3.5025064458219352e-01  3.3725495064031358e-01  3.3783351542309903e-01  3.3505427957230488e-01  3.3733403778816268e-01  3.3852327818882083e-01  3.3581108340351323e-01  3.3710279787936870e-01  3.3754938166840331e-01  3.3730706092263446e-01  3.5024463958512425e-01  3.3691504972898029e-01  3.3638184165645507e-01  3.3463292393071853e-01  3.3694125608274306e-01  3.3771041711483396e-01  3.3852425398121516e-01  3.3594994107124765e-01  3.3715182070395372e-01  3.3635044558340088e-01  3.3664301272045694e-01  3.3840295084644512e-01  3.3915424132033012e-01  3.3645331525875333e-01  3.3598596931937225e-01  3.3875453485819274e-01  3.3619010100526875e-01  3.5053995711764369e-01  3.3533636457224486e-01  3.5036958562612663e-01  3.3487849123775271e-01  3.3870892979900546e-01  3.3629460640921166e-01  3.3445176281013128e-01  3.5128892689177460e-01  3.3536839406576485e-01  3.3492039008539887e-01  3.3492804516201968e-01  3.3208611168261121e-01  3.4190460679606755e-01  3.3788936932716479e-01  3.3622528466697466e-01  3.3549950321558231e-01  3.3231980748325401e-01  3.5109286988744676e-01  3.3509935914727323e-01  3.3375871178408978e-01  3.3409538754065693e-01  3.3582943080576483e-01  3.3172075789125638e-01  3.3230133514703436e-01  3.3235985913930521e-01  3.3335142034729864e-01  3.3340381367256527e-01  3.3256654458735518e-01  3.4668591065439708e-01  3.3084417158126400e-01  3.3210569079286234e-01  3.3555111934866649e-01  3.3343621633549880e-01  3.3255681666476467e-01  3.3222271174904749e-01  3.3758505276020245e-01  3.3456019045874275e-01  3.3248363587839075e-01  3.3850895651810264e-01  3.3230999653909044e-01  3.3198151665812142e-01  3.3417596690591606e-01  3.3536173966205302e-01  3.3230645783101204e-01  3.3483709770405451e-01  3.3474469066851886e-01  3.3207810325957399e-01  3.3545263909502787e-01  3.3207597807485950e-01  3.3622881312111969e-01  3.3387077157953798e-01  3.3105753667817450e-01  3.3155924600449893e-01  3.3128578988858770e-01  3.3201877680489256e-01  3.3186108123515706e-01  3.3454174399548486e-01  3.3568885082912064e-01  3.4975828430661060e-01  3.3456140451582156e-01  3.4976506515610761e-01  3.3185792882820425e-01  3.3402104792924447e-01  3.3425682346240249e-01  3.3062326931331698e-01  3.3195681868705301e-01  3.3489577801256692e-01  3.3208168437112628e-01  3.5078680532468909e-01  3.3213174007268914e-01  3.3181908157305223e-01  3.3470558379026144e-01  3.3222365783137747e-01  3.3907326547521088e-01  3.4948747784992251e-01  3.3532664872314166e-01  3.5313487711267139e-01  3.3036991689763684e-01  3.3456585556873686e-01  3.3471133723420737e-01  3.3383298608134993e-01  3.3027190244559729e-01  3.3576608717107220e-01  3.3716437735393751e-01  3.3487620592558787e-01  3.3758715243495468e-01  3.3635855759145650e-01  3.5133060937673710e-01  3.3446795251858147e-01  3.3417008670279535e-01  3.3414984467047587e-01  3.3407084812292259e-01  3.5248734836928225e-01  3.3422381231330112e-01  3.5268386590333667e-01  3.2980560822834903e-01  3.4038621539222236e-01  3.2973467651318872e-01  3.3433417846905544e-01  3.3819149097650547e-01  3.3426490899203520e-01  3.3649559674274021e-01  3.2976886178068082e-01  3.3710772649651566e-01  3.3912322332830719e-01  3.5260095992167578e-01  3.3515217193054009e-01  3.3937229640182726e-01  3.3450017947224342e-01  3.3683852518534169e-01  3.3686327583277342e-01  3.3847728050394721e-01  3.3695592214374459e-01  3.3843046507982610e-01  3.3723706834518774e-01  3.4022209626004912e-01  3.3680548947365330e-01  3.3499765047149715e-01  3.3395159147886710e-01  3.3918083646194119e-01  3.3326580530801259e-01  3.3828051991815167e-01  3.4769976998109492e-01  3.3847410324244004e-01  3.3960996959454415e-01  3.3349602886395296e-01  3.4038839171571883e-01  3.5279238721816975e-01  3.3764655995459575e-01  3.3776627138278714e-01  3.4001152097875847e-01  3.3815760910977866e-01  3.3396596412537266e-01  3.3789005431598240e-01  3.3806066014071268e-01  3.3381322375604444e-01  3.3345817291089325e-01  3.3830768307628900e-01  2.9139074122684450e-01  2.8788830272884608e-01  2.8297780629346442e-01  2.9085048728406165e-01  2.9224678546728072e-01  2.9022383096699989e-01  2.9442483671180603e-01  2.9617387690859870e-01  2.8855742599960538e-01  2.8957002826407080e-01  2.8853432903057363e-01  2.8643685186918805e-01  2.8765979913805884e-01  2.8689288395788004e-01  1.4811373146750984e-02  2.8853130826563966e-01  1.7648535015911120e-02  1.5318552521047269e-02  2.9331783747939216e-01  1.7563858684589297e-02  1.4994897116518602e-02  1.6119605675287418e-02  1.6569701512798785e-02  2.8902953624036454e-01  1.7259165344643224e-02  2.8914570126307620e-01  2.8949239249170700e-01  2.8714952447750186e-01  2.9078693857744126e-01  2.8645095334100568e-01  2.8836696713178950e-01  3.0341383128298580e-02  2.6003483567515726e-02  2.6638132234175788e-02  2.7053045733250739e-02  2.8971543125283269e-02  3.0128033479064918e-02  3.1427318700352230e-02  3.0821078796563778e-02  3.1117476487408837e-02  3.5963189844111794e-02  3.4158441407639413e-02  3.7564586117007720e-02  5.8028671618515814e-03  5.9312195004883102e-03  6.6312239395247509e-03  7.3654494328370904e-03  6.3479121597597938e-03  5.9193632341090728e-03  6.6886282509512340e-03  6.8554835594334309e-03  2.8324293939344858e-01  2.4924297783235907e-01  2.4788536788692678e-01  2.0932752033227664e-01  2.0738753716300773e-01  2.0532488748282776e-01  1.6724077046494845e-01  1.7128828914975566e-01  1.2917850582770546e-01  1.2736166845152705e-01  1.6330654183920362e-01  1.2219193476969804e-01  1.5395106294566230e-01  1.1372865129385232e-01  1.4229913491366467e-01  1.0362570358548642e-01  1.2761013539028537e-01  9.2239855826365846e-02  1.1015467671429736e-01  7.7954598924333471e-02  9.1566301087796814e-02  1.2626375838762618e-01  1.0448857834208161e-01  1.4115492698892207e-01  1.0989502595863031e-01  7.2184484046454056e-02  1.5191224451596133e-01  1.2046390115006668e-01  1.5611558465441877e-01  1.2244082543771240e-01  1.6261712717924651e-01  9.0256481318185394e-02  1.2211879572097549e-01  1.6333546316178313e-01  1.1877107541519653e-01  1.5052920623640417e-01  1.7648523497178675e-01  1.7042572766509853e-01  6.8716632095339736e-02  1.3422450021337740e-01  1.9270957537194225e-01  1.0764273332913719e-01  1.3878010217241069e-01  9.3667424140764927e-02  2.0005447939698257e-01  1.8451714428904975e-01  1.7248579325318528e-01  1.2845187526378091e-01  1.6298270935603962e-01  1.1448770494328922e-01  1.3873530769489620e-01  9.6395206228031424e-02  1.1816253797059716e-01  1.6196366364756018e-01  1.3894056652750372e-01  9.8225938002490382e-02  1.1556503319009062e-01  7.8837198500934971e-02  9.2065946256499567e-02  1.3494688506956984e-01  1.0244317702664268e-01  1.3805287747520453e-01  1.0858063383973050e-01  1.4057978979705524e-01  1.1091806122866468e-01  1.4718432709992349e-01  1.0939640008111694e-01  1.3749195886112703e-01  8.3557915380625625e-02  1.0183195877819516e-01  1.2706815937518734e-01  9.0575342332168282e-02  1.1242339208974078e-01  7.7934222818323670e-02  1.5316673181339435e-01  1.3497068481033297e-01  1.8048751366495258e-01  1.8368402782693996e-01  1.6241083305242054e-01  1.7543406330824104e-01  1.1517304668669481e-01  1.3245882238439674e-01  7.0101458749648488e-02  5.9272026144984363e-02  1.8525628768174890e-01  9.0975156931271450e-02  1.0553330296340104e-01  1.4900326245174364e-01  1.1992996247818513e-01  1.6898462941996162e-01  1.3221519113348190e-01  1.7405923707187829e-01  1.4479766591505300e-01  1.0151648237280611e-01  1.0886772863631301e-01  1.4682599874938501e-01  1.1403307552456644e-01  1.4994740184387415e-01  1.1705743942659408e-01  1.5398080041791051e-01  1.1654272978983846e-01  1.4602876499566536e-01  1.1087185523320578e-01  1.3698766169818910e-01  1.0168640148939685e-01  1.2445568328822242e-01  9.0010286830641772e-02  1.0870685150757955e-01  8.8262212212952815e-02  7.0925177451107310e-02  6.1292764015033453e-02  1.4537464349188201e-01  1.2663337522569584e-01  9.2690441273669391e-02  1.0592770381214285e-01  1.4349784497924670e-01  1.1609357819379056e-01  7.7663063259679574e-02  1.7484409579695268e-01  1.6420650254898081e-01  1.2727838628794505e-01  4.6383287594852982e-02  1.7464076811710483e-01  1.3336703930149132e-01  3.8700004446337782e-02  1.7598203154044717e-01  1.3484532301427454e-01  1.7362729893126294e-01  1.3186858610143362e-01  1.7410539318113713e-01  1.2251415685230226e-01  1.5416746097044465e-01  1.1171956689521800e-01  1.4322415471466196e-01  9.8787698814153044e-02  1.0051184166176527e-01  1.2840423982130236e-01  1.7361748088876924e-01  1.5462335541056432e-01  1.1366828684104492e-01  1.3503697059782663e-01  9.7044223205338453e-02  1.1437162531156987e-01  1.5320738959837202e-01  1.2873896534200929e-01  9.3808612465802577e-02  1.0531476075171617e-01  7.4447708365193335e-02  8.2668547789930436e-02  1.1405961816147228e-01  8.7839435513087177e-02  1.1853580685538664e-01  8.9372864358548465e-02  1.1942915063864945e-01  5.6368091722839464e-02  1.5236384636625266e-01  1.5817376615083154e-01  1.1764028836498805e-01  1.4994769826274293e-01  1.6853393595751376e-01  1.1077347758199126e-01  1.4056599546437712e-01  8.3897635179159380e-02  6.3234169362658715e-02  1.8513518913255947e-01  1.9254306356274040e-01  1.8903515177796387e-01  1.7569348684738975e-01  1.3300801317443467e-01  1.9082660036098612e-01  6.3742307155251421e-02  2.3008454845240386e-01  2.0111686782385499e-01  6.0187275166569659e-02  1.8043957022817178e-01  5.0269653139320955e-02  2.2108026342553455e-01  2.1163563042047681e-01  7.1461207897646400e-02  1.9648903221366376e-01  2.1212974286851649e-01  5.0076315205836323e-02  2.0805770124724829e-01  6.2488461104419135e-02  1.9420404871746794e-01  2.0000294255487822e-01  2.0074485314395488e-01  8.6691796976809371e-02  7.7068804533808738e-02  6.4169917560032777e-02  8.6017207234701049e-02  9.3485749466313717e-02  2.2374960997766966e-01  2.1220467579438856e-01  2.3056712769057547e-01  2.2794641819670644e-01  2.4048138906058902e-01  2.2693032803588264e-01  2.9044398344773799e-02  2.9964917138599494e-02  2.1426758617575620e-02  9.5850052804352964e-02  2.3334202567685491e-01  2.5612783178691112e-01  1.8098503865938406e-01  7.2465648633079804e-02  6.3675658329019405e-02  1.3102869577694085e-01  1.9150635080676914e-01  2.1524143892062017e-01  9.3636929818661563e-02  2.3470599987416055e-01  2.5607261229334344e-01  2.1886147257547292e-01  2.1398614122199844e-01  2.2864774725496223e-01  2.5589585097936451e-01  2.1978285364199646e-01  2.2092644571401163e-01  2.2187934309613169e-01  2.5213004834678782e-01  2.4689143559592297e-01  7.5835897322659648e-02  5.4162597292761620e-02  2.6742563671937619e-01  8.0316545943866974e-02  2.3798742304717480e-01  2.2950495818084624e-01  1.9595830583088497e-01  2.6326754868164670e-01  4.7096923571953823e-02  2.4169458329812804e-01  3.6941313816126656e-02  3.8269666805332038e-02  2.5007495458132367e-01  3.9552859240229638e-02  4.1321971223146750e-02  3.7396414266794187e-02  6.8556425143888836e-02  7.8276885817393643e-02  6.0328827577849402e-02  2.8569969010935092e-01  2.6586021430277323e-01  2.5067850492622162e-01  2.3056176286493087e-02  2.5338463539454466e-02  4.5943737698386257e-02  3.8431484511790237e-02  4.1710056879604676e-02  5.3022555206732588e-02  3.2612043328824905e-02  4.7149415749829691e-02  2.1273971570396563e-01  2.8881828203917986e-01  2.4973816540818269e-01  2.5072599524622619e-01  2.8922524549040918e-01  2.5499427679019260e-01  2.5254015328260543e-01  2.5268668705623598e-01  2.8697288717993896e-01  2.8299116443949707e-01  2.5209977135211964e-01  2.5284783516624332e-01  2.4424084029784129e-01  2.1559000342229556e-01  1.6810535082174863e-01  2.1938408960196992e-01  2.2440040225068747e-01  2.6029862132014681e-01  1.9357073314516632e-01  2.3704788263413404e-01  2.0797621996056420e-01  2.5051823681782293e-01  5.4836977780262065e-02  2.8640795861382606e-01  2.5399634668472848e-01  2.4853615519641720e-01  2.1895137156679687e-01  2.1554709034560329e-01  1.9463334367629409e-01  3.3410017966353685e-02  2.8603975629907658e-01  2.4741687513988245e-01  1.8300348726649313e-01  2.8842967805470521e-01  1.9586841744262734e-01  2.3153539405522577e-01  2.3130568018618475e-01  2.3452865849379570e-01  2.6742413032921603e-01  2.6415448714923812e-01  2.2658651668668151e-01  2.8309600458581491e-01  2.5724189064787445e-01  2.5049062960085100e-01  2.5856486297856274e-01  2.9106676643277035e-01  1