<?xml version="1.0"?>
<VTKFile type="UnstructuredGrid"  version="0.1"  >
<UnstructuredGrid>
<Piece  NumberOfPoints="1235" NumberOfCells="2372">
<Points>
<DataArray  type="Float64"  NumberOfComponents="3"  format="ascii">0 0 0  0 1 0  1 1 0  1 0 0  1.1 -0.1 0  -0.1 -0.1 0  1.1 1.1 0  -0.1 1.1 0  0.503631892158645 0.5032909416969183 0  0.2531632297695513 0.5427495684106333 0  0 0.9499999999997918 0  0 0.8999999999995836 0  0 0.8499999999996529 0  0 0.7999999999999998 0  0 0.7500000000003466 0  0 0.7000000000006934 0  0 0.6500000000010401 0  0 0.6000000000013869 0  0 0.5500000000017335 0  0 0.5000000000020587 0  0 0.4500000000018723 0  0 0.4000000000016644 0  0 0.3500000000014564 0  0 0.3000000000012483 0  0 0.2500000000010403 0  0 0.2000000000008322 0  0 0.1500000000006241 0  0 0.100000000000416 0  0 0.05000000000020799 0  0.04999999999989965 0 0  0.09999999999981467 0 0  0.1499999999997036 0 0  0.1999999999995579 0 0  0.2499999999994121 0 0  0.2999999999992664 0 0  0.3499999999991206 0 0  0.3999999999989749 0 0  0.4499999999988292 0 0  0.4999999999986943 0 0  0.5499999999988151 0 0  0.5999999999989468 0 0  0.6499999999990784 0 0  0.69999999999921 0 0  0.7499999999993417 0 0  0.7999999999994734 0 0  0.8499999999996051 0 0  0.8999999999997368 0 0  0.9499999999998684 0 0  1 0.04999999999989965 0  1 0.09999999999981467 0  1 0.1499999999997036 0  1 0.1999999999995579 0  1 0.2499999999994121 0  1 0.2999999999992664 0  1 0.3499999999991206 0  1 0.3999999999989749 0  1 0.4499999999988292 0  1 0.4999999999986943 0  1 0.5499999999988151 0  1 0.5999999999989468 0  1 0.6499999999990784 0  1 0.69999999999921 0  1 0.7499999999993417 0  1 0.7999999999994734 0  1 0.8499999999996051 0  1 0.8999999999997368 0  1 0.9499999999998684 0  0.9499999999997918 1 0  0.8999999999995836 1 0  0.8499999999996529 1 0  0.7999999999999998 1 0  0.7500000000003466 1 0  0.7000000000006934 1 0  0.6500000000010401 1 0  0.6000000000013869 1 0  0.5500000000017335 1 0  0.5000000000020587 1 0  0.4500000000018723 1 0  0.4000000000016644 1 0  0.3500000000014564 1 0  0.3000000000012483 1 0  0.2500000000010403 1 0  0.2000000000008322 1 0  0.1500000000006241 1 0  0.100000000000416 1 0  0.05000000000020799 1 0  -0.1 1.05000000000004 0  -0.1 1.000000000000079 0  -0.1 0.9500000000001624 0  -0.1 0.9000000000003032 0  -0.1 0.850000000000444 0  -0.1 0.8000000000005848 0  -0.1 0.7500000000007256 0  -0.1 0.7000000000008665 0  -0.1 0.6500000000010508 0  -0.1 0.6000000000012352 0  -0.1 0.5500000000014196 0  -0.1 0.500000000001539 0  -0.1 0.4500000000014195 0  -0.1 0.4000000000013 0  -0.1 0.3500000000011588 0  -0.1 0.3000000000010178 0  -0.1 0.2500000000008986 0  -0.1 0.2000000000007579 0  -0.1 0.1500000000006174 0  -0.1 0.1000000000005272 0  -0.1 0.05000000000040083 0  -0.1 2.671196597248127e-13 0  -0.1 -0.0499999999998666 0  -0.0500000000000906 -0.1 0  -1.730560139634463e-13 -0.1 0  0.04999999999975802 -0.1 0  0.09999999999961506 -0.1 0  0.1499999999994613 -0.1 0  0.199999999999302 -0.1 0  0.2499999999991446 -0.1 0  0.2999999999990088 -0.1 0  0.3499999999988296 -0.1 0  0.3999999999986936 -0.1 0  0.4499999999985143 -0.1 0  0.4999999999984002 -0.1 0  0.5499999999985247 -0.1 0  0.5999999999986493 -0.1 0  0.6499999999987955 -0.1 0  0.6999999999989417 -0.1 0  0.7499999999990659 -0.1 0  0.7999999999992116 -0.1 0  0.8499999999993573 -0.1 0  0.8999999999994526 -0.1 0  0.949999999999584 -0.1 0  0.9999999999997226 -0.1 0  1.049999999999861 -0.1 0  1.1 -0.0500000000000906 0  1.1 -1.730560139634463e-13 0  1.1 0.04999999999975802 0  1.1 0.09999999999961506 0  1.1 0.1499999999994613 0  1.1 0.199999999999302 0  1.1 0.2499999999991446 0  1.1 0.2999999999990088 0  1.1 0.3499999999988296 0  1.1 0.3999999999986936 0  1.1 0.4499999999985143 0  1.1 0.4999999999984002 0  1.1 0.5499999999985247 0  1.1 0.5999999999986493 0  1.1 0.6499999999987955 0  1.1 0.6999999999989417 0  1.1 0.7499999999990659 0  1.1 0.7999999999992116 0  1.1 0.8499999999993573 0  1.1 0.8999999999994526 0  1.1 0.949999999999584 0  1.1 0.9999999999997226 0  1.1 1.049999999999861 0  1.05000000000004 1.1 0  1.000000000000079 1.1 0  0.9500000000001624 1.1 0  0.9000000000003032 1.1 0  0.850000000000444 1.1 0  0.8000000000005848 1.1 0  0.7500000000007256 1.1 0  0.7000000000008665 1.1 0  0.6500000000010508 1.1 0  0.6000000000012352 1.1 0  0.5500000000014196 1.1 0  0.500000000001539 1.1 0  0.4500000000014195 1.1 0  0.4000000000013 1.1 0  0.3500000000011588 1.1 0  0.3000000000010178 1.1 0  0.2500000000008986 1.1 0  0.2000000000007579 1.1 0  0.1500000000006174 1.1 0  0.1000000000005272 1.1 0  0.05000000000040083 1.1 0  2.671196597248127e-13 1.1 0  -0.0499999999998666 1.1 0  0.2582603768713498 0.5671264646696604 0  0.2660937702125073 0.5907612403625647 0  0.2765600379198153 0.6135676956638814 0  0.2896686046127192 0.6351273639202903 0  0.3049957057557179 0.6552602643930874 0  0.3224667774103911 0.6738961525674586 0  0.3418744049676738 0.6906302276421219 0  0.3630419457883378 0.7053914831079839 0  0.3854958679445137 0.7181546534570685 0  0.4090402993552277 0.7288242059616483 0  0.4334366041748107 0.7372400185285933 0  0.4585915275771673 0.743284616271094 0  0.4842068323096521 0.7468036678958426 0  0.5100392002420407 0.7478427150804509 0  0.5357752287829012 0.7462189323065609 0  0.5611993892282957 0.7419079695763233 0  0.5859638305147883 0.7349449178665353 0  0.6098759781383836 0.7254195461049592 0  0.6325393870005893 0.713352476383742 0  0.6538285625441946 0.6989551332817098 0  0.6734726449532781 0.6824096703344671 0  0.6910517454654079 0.6637884951408836 0  0.7065587438064344 0.6433333802090991 0  0.7198415076638894 0.6213829951454067 0  0.7307248354923634 0.5981067188708254 0  0.7389727019780067 0.5738208230749466 0  0.744482521194239 0.5487160091896505 0  0.7475080944360415 0.5231376104562748 0  0.7478536341321608 0.4973820064148287 0  0.7456516517412564 0.4716122831434307 0  0.7409941621533186 0.4461824996507441 0  0.7339280098203546 0.4213595248808794 0  0.7244850053268999 0.397283360595452 0  0.7126936870998841 0.3742529827998679 0  0.6988532826855928 0.3524528420916857 0  0.6830865507702201 0.3320643196047064 0  0.6652775008755674 0.3134861299573714 0  0.6458084503328709 0.2970810847214477 0  0.6247568309024668 0.2827793098545921 0  0.6025266139933209 0.2706836103606656 0  0.5790998003706038 0.2612796602023947 0  0.5548014881970169 0.2549251687644457 0  0.5301261090509629 0.2510614473797098 0  0.5051047822986632 0.2499665458201183 0  0.4800156045111593 0.251688424174709 0  0.4550632859321248 0.2562545498298409 0  0.4306044053539086 0.2634772982840189 0  0.4068776413351936 0.2731582539229255 0  0.3841255350340263 0.2851373129567749 0  0.3625272957613437 0.2992259261867392 0  0.3422752478196161 0.3152727214715587 0  0.3235803793648288 0.3331051366997683 0  0.3066314977960976 0.3525839135364471 0  0.2916264139066792 0.3735202551616842 0  0.2786882097319996 0.3957630629353622 0  0.268025547370554 0.4190642627954718 0  0.259750854336414 0.4432060341426217 0  0.2539709924842206 0.4679493099353194 0  0.2508996180942472 0.4929714616998273 0  0.2505871067220028 0.5179841081282985 0  0.2760904462693862 0.5503890059236105 0  0.278215571962211 0.4615912168089999 0  0.3142535510475768 0.631385091636555 0  0.5386379923154871 0.2717645865531604 0  0.4502722635280636 0.2804178314589346 0  0.6226228947457206 0.3078813762485774 0  0.3858292783940386 0.3106504696897602 0  0.3327941637132503 0.3577136498746779 0  0.6667132496088387 0.6575492756539094 0  0.5882309868542633 0.7100359697400442 0  0.4985771346712616 0.7244452944753278 0  0.7138863968494983 0.5808325243115671 0  0.7262591917038494 0.4878071920423645 0  0.4261610031386566 0.711632753117085 0  0.708042036992762 0.4177236710097642 0  0.3633439638757726 0.6802512957027307 0  0.6771386873246669 0.3530703883275111 0  0.305000898337476 0.3968780188798839 0  0.6298428395879277 0.6884942943988326 0  0.5446691921834202 0.7201173756800773 0  0.7243556865281049 0.5351932751005699 0  0.6941139087065678 0.6233574538697358 0  0.5837113222833978 0.2887871092600742 0  0.2893460943111728 0.5939507620181097 0  0.4952128495019867 0.2723451100123666 0  0.2715991531685925 0.5058664061680469 0  0.6985412075227694 0.3943846957086461 0  0.6815837122301854 0.4133319057114681 0  0.6912976449665519 0.4379701284186013 0  0.6640900854934798 0.4328853483332645 0  0.6751522080248511 0.4595889926228344 0  0.6514713333612944 0.4555726227728569 0  0.6311823074511108 0.4318870681956856 0  0.656666551105312 0.4814552865705231 0  0.6238220851211764 0.4759832930157497 0  0.6408747707958911 0.5118628333112787 0  0.5911586249636592 0.444998373074168 0  0.6055683119635984 0.3988425149872321 0  0.55950732997608 0.4154903619983061 0  0.5710500197141539 0.3706143634446175 0  0.5242456373142037 0.3883589195709644 0  0.5339533541081178 0.3412359526646227 0  0.4902650544890723 0.3554345529244677 0  0.4845526372339934 0.4004501348364342 0  0.4493063738805535 0.3693664834713883 0  0.4432546314372016 0.4123467196034329 0  0.4178494061309317 0.3852857342796275 0  0.4034768429931828 0.4180370484531096 0  0.6025963046174336 0.3664330764065942 0  0.5026647242347654 0.3248416486558133 0  0.6769430946973646 0.5177776319264863 0  0.6517431119793371 0.5466158409940646 0  0.612549843937447 0.546961744995987 0  0.634735536743243 0.5875507318554791 0  0.588185305001663 0.5821273768384557 0  0.6040359219158987 0.618990088262516 0  0.5652284211929353 0.6226989758258127 0  0.588243323791887 0.6495411307534759 0  0.5420448062367533 0.6535122970902143 0  0.5259551380293676 0.6160441535006114 0  0.4973248954944768 0.6530386617563694 0  0.4838348911098144 0.6136984412138893 0  0.4662695602062971 0.6406603272748627 0  0.4438350888665276 0.6171223576446567 0  0.4233073726491843 0.6396779737028898 0  0.3993812555775461 0.6175583267935599 0  0.4235891981310608 0.5773137032826163 0  0.3784223523868904 0.5782282409821667 0  0.4023269551929165 0.539770167448664 0  0.358678819692955 0.5427362737769524 0  0.3809009532669091 0.5044416831314128 0  0.3393517675
[...]
<PointData  Scalars="u"> 
<DataArray  type="Float64"  Name="u"  format="ascii">0.0000000000000000e+00  0.0000000000000000e+00  0.0000000000000000e+00  0.0000000000000000e+00  0.0000000000000000e+00  0.0000000000000000e+00  0.0000000000000000e+00  0.0000000000000000e+00  3.5266339541348057e-01  3.1660144920353356e-01  0.0000000000000000e+00  0.0000000000000000e+00  0.0000000000000000e+00  0.0000000000000000e+00  0.0000000000000000e+00  0.0000000000000000e+00  0.0000000000000000e+00  0.0000000000000000e+00  0.0000000000000000e+00  0.0000000000000000e+00  0.0000000000000000e+00  0.0000000000000000e+00  0.0000000000000000e+00  0.0000000000000000e+00  0.0000000000000000e+00  0.0000000000000000e+00  0.0000000000000000e+00  0.0000000000000000e+00  0.0000000000000000e+00  0.0000000000000000e+00  0.0000000000000000e+00  0.0000000000000000e+00  0.0000000000000000e+00  0.0000000000000000e+00  0.0000000000000000e+00  0.0000000000000000e+00  0.0000000000000000e+00  0.0000000000000000e+00  0.0000000000000000e+00  0.0000000000000000e+00  0.0000000000000000e+00  0.0000000000000000e+00  0.0000000000000000e+00  0.0000000000000000e+00  0.0000000000000000e+00  0.0000000000000000e+00  0.0000000000000000e+00  0.0000000000000000e+00  0.0000000000000000e+00  0.0000000000000000e+00  0.0000000000000000e+00  0.0000000000000000e+00  0.0000000000000000e+00  0.0000000000000000e+00  0.0000000000000000e+00  0.0000000000000000e+00  0.0000000000000000e+00  0.0000000000000000e+00  0.0000000000000000e+00  0.0000000000000000e+00  0.0000000000000000e+00  0.0000000000000000e+00  0.0000000000000000e+00  0.0000000000000000e+00  0.0000000000000000e+00  0.0000000000000000e+00  0.0000000000000000e+00  0.0000000000000000e+00  0.0000000000000000e+00  0.0000000000000000e+00  0.0000000000000000e+00  0.0000000000000000e+00  0.0000000000000000e+00  0.0000000000000000e+00  0.0000000000000000e+00  0.0000000000000000e+00  0.0000000000000000e+00  0.0000000000000000e+00  0.0000000000000000e+00  0.0000000000000000e+00  0.0000000000000000e+00  0.0000000000000000e+00  0.0000000000000000e+00  0.0000000000000000e+00  0.0000000000000000e+00  0.0000000000000000e+00  0.0000000000000000e+00  0.0000000000000000e+00  0.0000000000000000e+00  0.0000000000000000e+00  0.0000000000000000e+00  0.0000000000000000e+00  0.0000000000000000e+00  0.0000000000000000e+00  0.0000000000000000e+00  0.0000000000000000e+00  0.0000000000000000e+00  0.0000000000000000e+00  0.0000000000000000e+00  0.0000000000000000e+00  0.0000000000000000e+00  0.0000000000000000e+00  0.0000000000000000e+00  0.0000000000000000e+00  0.0000000000000000e+00  0.0000000000000000e+00  0.0000000000000000e+00  0.0000000000000000e+00  0.0000000000000000e+00  0.0000000000000000e+00  0.0000000000000000e+00  0.0000000000000000e+00  0.0000000000000000e+00  0.0000000000000000e+00  0.0000000000000000e+00  0.0000000000000000e+00  0.0000000000000000e+00  0.0000000000000000e+00  0.0000000000000000e+00  0.0000000000000000e+00  0.0000000000000000e+00  0.0000000000000000e+00  0.0000000000000000e+00  0.0000000000000000e+00  0.0000000000000000e+00  0.0000000000000000e+00  0.0000000000000000e+00  0.0000000000000000e+00  0.0000000000000000e+00  0.0000000000000000e+00  0.0000000000000000e+00  0.0000000000000000e+00  0.0000000000000000e+00  0.0000000000000000e+00  0.0000000000000000e+00  0.0000000000000000e+00  0.0000000000000000e+00  0.0000000000000000e+00  0.0000000000000000e+00  0.0000000000000000e+00  0.0000000000000000e+00  0.0000000000000000e+00  0.0000000000000000e+00  0.0000000000000000e+00  0.0000000000000000e+00  0.0000000000000000e+00  0.0000000000000000e+00  0.0000000000000000e+00  0.0000000000000000e+00  0.0000000000000000e+00  0.0000000000000000e+00  0.0000000000000000e+00  0.0000000000000000e+00  0.0000000000000000e+00  0.0000000000000000e+00  0.0000000000000000e+00  0.0000000000000000e+00  0.0000000000000000e+00  0.0000000000000000e+00  0.0000000000000000e+00  0.0000000000000000e+00  0.0000000000000000e+00  0.0000000000000000e+00  0.0000000000000000e+00  0.0000000000000000e+00  0.0000000000000000e+00  0.0000000000000000e+00  0.0000000000000000e+00  0.0000000000000000e+00  0.0000000000000000e+00  0.0000000000000000e+00  0.0000000000000000e+00  0.0000000000000000e+00  0.0000000000000000e+00  0.0000000000000000e+00  0.0000000000000000e+00  0.0000000000000000e+00  0.0000000000000000e+00  3.1662100710748936e-01  3.1676815929700380e-01  3.1698442745528604e-01  3.1741426697016395e-01  3.1781133609904921e-01  3.1791915802355220e-01  3.1805887749750483e-01  3.1886089115342015e-01  3.1880518199478369e-01  3.1829577745427701e-01  3.1795265325932109e-01  3.1767457104625807e-01  3.1758596876142187e-01  3.1731299446133199e-01  3.1710388002525502e-01  3.1709384433807591e-01  3.1713389804862813e-01  3.1692407350980489e-01  3.1695048381867558e-01  3.1730151075183421e-01  3.1682215227505311e-01  3.1703032860601582e-01  3.1734070401717290e-01  3.1712892263828152e-01  3.1686367239350183e-01  3.1684503902270655e-01  3.1740648548986394e-01  3.1730113406710370e-01  3.1775231621493383e-01  3.1825553134540391e-01  3.1772923843172124e-01  3.1767772582502357e-01  3.1833593860853032e-01  3.1875856598067343e-01  3.1862814789827432e-01  3.1807344112266478e-01  3.1765642949981954e-01  3.1745810587054568e-01  3.1719515696162248e-01  3.1656816907224616e-01  3.1618330200222194e-01  3.1643045774481277e-01  3.1630688518855743e-01  3.1636443955163501e-01  3.1687013238498796e-01  3.1734994507548625e-01  3.1765889191466973e-01  3.1827249033442295e-01  3.1881052253343867e-01  3.1907712564021562e-01  3.1915268593731483e-01  3.1892361284138304e-01  3.1830776062017496e-01  3.1812683879093095e-01  3.1785320336506140e-01  3.1731268777813637e-01  3.1734780584462391e-01  3.1701781464253348e-01  3.1655191937429622e-01  3.1645432825891862e-01  3.3056012161609771e-01  3.3146856617354586e-01  3.3190991707227668e-01  3.3021929283605178e-01  3.3144065134091694e-01  3.3109615951853372e-01  3.3240361458007317e-01  3.3263727771938867e-01  3.3088444771469738e-01  3.3151701657386767e-01  3.3198564923389123e-01  3.3117577004228727e-01  3.3149926429334986e-01  3.3219978657317367e-01  3.3215365692835352e-01  3.3149487064967381e-01  3.3022318936818107e-01  3.3237225950229204e-01  3.3123080843219022e-01  3.3191565775927340e-01  3.3146422440640322e-01  3.3091248222238423e-01  3.3144912341212640e-01  3.3048677611106958e-01  3.3106686903990656e-01  3.3070772170578483e-01  3.3197219641025055e-01  3.3502406032142013e-01  3.3506293413221272e-01  3.3821791610031360e-01  3.3807810592213156e-01  3.4035325046703035e-01  3.4163585303663135e-01  3.4045099091473874e-01  3.4459021037728826e-01  3.4282661522571956e-01  3.4739381884523884e-01  3.4152651543303530e-01  3.4782715987981344e-01  3.4144166696794948e-01  3.4679539085292710e-01  3.3907802901428336e-01  3.4174022658012032e-01  3.4777949840117645e-01  3.4222979015372046e-01  3.4684086409508325e-01  3.4203149423538270e-01  3.4406449778140330e-01  3.3843583212342565e-01  3.3754489792113440e-01  3.3792508092971607e-01  3.4055425764974340e-01  3.4578798960784030e-01  3.3987773090040230e-01  3.4585835795891617e-01  3.4042710379418084e-01  3.4290707642907559e-01  3.3829157060323156e-01  3.4020215596872416e-01  3.4586420133648976e-01  3.4108039092392389e-01  3.4588123289289557e-01  3.4195455557968774e-01  3.4378070008097628e-01  3.3992629457478407e-01  3.4036341935901765e-01  3.4693462956275484e-01  3.4154282897408567e-01  3.4707764408718034e-01  3.4101981776108059e-01  3.4561377115806580e-01  3.3948535467830998e-01  3.3858092783949556e-01  3.4114049850717471e-01  3.3618981198158632e-01  3.3612653688432714e-01  3.3930867537324966e-01  3.3722132448136677e-01  3.4954368471329056e-01  3.3640771026923089e-01  3.3699079930906695e-01  3.3420671187885920e-01  3.3659420558929526e-01  3.3803708123085496e-01  3.3524394597191420e-01  3.3666666195477107e-01  3.3700676799063201e-01  3.3694641602267011e-01  3.4957312916871552e-01  3.3645888569747151e-01  3.3545626877515178e-01  3.3422154452186986e-01  3.3613609778262221e-01  3.3734550433252514e-01  3.3790122253179278e-01  3.3547687669449766e-01  3.3661235994300764e-01  3.3594764873292005e-01  3.3564498646581981e-01  3.3747441961086966e-01  3.3840854531864728e-01  3.3555535115223184e-01  3.3508366766369191e-01  3.3776698968004709e-01  3.3513327909131030e-01  3.4983878833192295e-01  3.3437067197720766e-01  3.4969465676713501e-01  3.3401102131864568e-01  3.3810189382670847e-01  3.3560882635720884e-01  3.3410063158236430e-01  3.5061718843251910e-01  3.3480727625786966e-01  3.3409307876336197e-01  3.3403875028089802e-01  3.3183621689600445e-01  3.4142678559149747e-01  3.3756204333529860e-01  3.3604398230674543e-01  3.3515379863884109e-01  3.3195786807538435e-01  3.5038705498975103e-01  3.3464671707286470e-01  3.3341610947039202e-01  3.3356930767891552e-01  3.3549296543232382e-01  3.3168877490376958e-01  3.3232286508721059e-01  3.3169973076239173e-01  3.3256192391929101e-01  3.3238292825597043e-01  3.3233029419336435e-01  3.4606308705297223e-01  3.3068935018871498e-01  3.3207645173320705e-01  3.3534489071604745e-01  3.3312715699832735e-01  3.3225310943052877e-01  3.3165995006153515e-01  3.3684309567448883e-01  3.3378041009833920e-01  3.3199738912147431e-01  3.3800868571552911e-01  3.3184320517848903e-01  3.3125857212218640e-01  3.3350052903297051e-01  3.3524797183299565e-01  3.3145448309756470e-01  3.3407363254803613e-01  3.3445816897383907e-01  3.3114304431034863e-01  3.3490858583514754e-01  3.3125116996434162e-01  3.3559235854919917e-01  3.3316109256983167e-01  3.3016770473382168e-01  3.3059112533894741e-01  3.3036655012421340e-01  3.3135543688500707e-01  3.3081108160564215e-01  3.3349855875213086e-01  3.3536837792113172e-01  3.4913356603780887e-01  3.3409264411780282e-01  3.4910237267994365e-01  3.3061118484415386e-01  3.3286040611797796e-01  3.3312260726383802e-01  3.2949573652246422e-01  3.3078015622174134e-01  3.3382330454370462e-01  3.3168575972013314e-01  3.5007296112105429e-01  3.3093986893748706e-01  3.3152993810940601e-01  3.3449490599875920e-01  3.3165032918524123e-01  3.3875820436197218e-01  3.4878237581667143e-01  3.3470020327690148e-01  3.5244020221338695e-01  3.2986664188841874e-01  3.3386014103005623e-01  3.3393723119102703e-01  3.3285166186965837e-01  3.2952475004896381e-01  3.3475514748035540e-01  3.3617362908489201e-01  3.3432976487971722e-01  3.3693760128447037e-01  3.3556319771777504e-01  3.5063382170136403e-01  3.3436956418360692e-01  3.3328637858277549e-01  3.3325866654264158e-01  3.3344098509091075e-01  3.5178780377411856e-01  3.3314419958796948e-01  3.5198787257202108e-01  3.2869567932007498e-01  3.3981080739929581e-01  3.2949408252229151e-01  3.3363059366725911e-01  3.3733830651239299e-01  3.3343635818206446e-01  3.3571523258423980e-01  3.2896816476018920e-01  3.3633155650318630e-01  3.3838558034175331e-01  3.5190239855115052e-01  3.3471066853634845e-01  3.3890039104485176e-01  3.3344437863631154e-01  3.3582194176344476e-01  3.3605448273431754e-01  3.3772138848546845e-01  3.3623699388199269e-01  3.3757060922701526e-01  3.3626772230252150e-01  3.3977208144257670e-01  3.3574649267139672e-01  3.3471346822737053e-01  3.3302796740301299e-01  3.3875894754395258e-01  3.3218814712811012e-01  3.3759385400905112e-01  3.4704046834591773e-01  3.3748703358203991e-01  3.3908619179411925e-01  3.3234471365791518e-01  3.3996801715152214e-01  3.5209036617048006e-01  3.3682310094106999e-01  3.3682894204423336e-01  3.3969456322480762e-01  3.3768440255709670e-01  3.3358190079193129e-01  3.3766559818736508e-01  3.3746068781062227e-01  3.3299062961219988e-01  3.3266112611261739e-01  3.3789703011208594e-01  2.9180175305680411e-01  2.8725693402478270e-01  2.8198690505718976e-01  2.9029059877049440e-01  2.9233732602983775e-01  2.9045813336288784e-01  2.9443930194142559e-01  2.9617062514871051e-01  2.8757472044376808e-01  2.8869340684127587e-01  2.8728560789848268e-01  2.8495685811543681e-01  2.8601811662054738e-01  2.8545545401157046e-01  1.4838478351370520e-02  2.8869876233195807e-01  1.7640212761493548e-02  1.5255408459483465e-02  2.9333826954519415e-01  1.7465479586665639e-02  1.4907861889779430e-02  1.6023543874447696e-02  1.6515961046202541e-02  2.8842720342202027e-01  1.7236088342414406e-02  2.8873336777475483e-01  2.8854085286700903e-01  2.8577459956898715e-01  2.9001751909934603e-01  2.8490449736037177e-01  2.8818541248566854e-01  3.0359182700175926e-02  2.5857959659665732e-02  2.6688120419328592e-02  2.7074857410031454e-02  2.8820213661664287e-02  3.0202042130643588e-02  3.1450048988841163e-02  3.0614376233797778e-02  3.0899767035066236e-02  3.5927380008387973e-02  3.3994260594396010e-02  3.7411849153458777e-02  5.7767266642334428e-03  5.9265627226873152e-03  6.5937824006685360e-03  7.3403675317911081e-03  6.3023345220746367e-03  5.8809907583049232e-03  6.6336376277328097e-03  6.8247315504418905e-03  2.8181703416731779e-01  2.4803494137830584e-01  2.4676270917001417e-01  2.0834261359740761e-01  2.0633436899506660e-01  2.0443764552336824e-01  1.6636773396256524e-01  1.7034916773568604e-01  1.2840918435385967e-01  1.2659822634001711e-01  1.6243146327893715e-01  1.2149174430827733e-01  1.5316754457762391e-01  1.1312375522201011e-01  1.4163659535812204e-01  1.0313359295360366e-01  1.2709141387396389e-01  9.1852308643243952e-02  1.0974900540320910e-01  7.7647703920169980e-02  9.1249768555746860e-02  1.2586291712022646e-01  1.0418026185604551e-01  1.4079202490773760e-01  1.0962784024024401e-01  7.1937826075659961e-02  1.5160947584998291e-01  1.2026310368084608e-01  1.5592527255008268e-01  1.2233227379207894e-01  1.6253841598320787e-01  9.0121914370539777e-02  1.2209515194708824e-01  1.6334139013743723e-01  1.1880564577197522e-01  1.5057600157142970e-01  1.7580365370459319e-01  1.6991321134230392e-01  6.8387854073316864e-02  1.3350219311646799e-01  1.9242739335530976e-01  1.0770248044607372e-01  1.3880742951960728e-01  9.3086089444615897e-02  2.0001803964450368e-01  1.8451818964290903e-01  1.7242851657674518e-01  1.2841314875646559e-01  1.6283614148881384e-01  1.1437758579764962e-01  1.3852270087279051e-01  9.6224839365720988e-02  1.1790124606144245e-01  1.6164020299681781e-01  1.3858174418458863e-01  9.7939800163989316e-02  1.1520722605062250e-01  7.8564326709771592e-02  9.1746955433291713e-02  1.3450946973852826e-01  1.0207768832017779e-01  1.3758531672917612e-01  1.0818552400537831e-01  1.4008915150008550e-01  1.1051337451170622e-01  1.4666194052900738e-01  1.0898844956098387e-01  1.3698358520185205e-01  8.3243133029558672e-02  1.0143441563220618e-01  1.2658132061682006e-01  9.0206101549166168e-02  1.1198412271321989e-01  7.7639569847282000e-02  1.5261027618291884e-01  1.3448988630039499e-01  1.7985996187161860e-01  1.8308349426560863e-01  1.6193364719775802e-01  1.7488577870262628e-01  1.1479891899192615e-01  1.3212557012607903e-01  6.9811095626962694e-02  5.9012045581962332e-02  1.8481487555706350e-01  9.0721652368761826e-02  1.0534467583138275e-01  1.4876484511872340e-01  1.1983533592662639e-01  1.6885696928955263e-01  1.3221954087351923e-01  1.7404366827768566e-01  1.4487911127093012e-01  1.0159060919912014e-01  1.0896734707604067e-01  1.4691932658174373e-01  1.1410857795353682e-01  1.4999295642779253e-01  1.1706792629064550e-01  1.5395360254429183e-01  1.1647926668449758e-01  1.4590792371231390e-01  1.1074651636451216e-01  1.3679761724417069e-01  1.0151154599329083e-01  1.2419826977976901e-01  8.9804528783473489e-02  1.0842111755812529e-01  8.8233148086437188e-02  7.0774203192936869e-02  6.1139260320088366e-02  1.4500405107523409e-01  1.2623346816543823e-01  9.2401127579958692e-02  1.0553175810105095e-01  1.4293835169214089e-01  1.1555645479205788e-01  7.7319989924099483e-02  1.7461456059218444e-01  1.6345660968906836e-01  1.2658036733040687e-01  4.6265828567144646e-02  1.7371735477476274e-01  1.3254683087710675e-01  3.8594063617881480e-02  1.7497901348064895e-01  1.3399884265082690e-01  1.7264706119524881e-01  1.3108134097486757e-01  1.7321084126587005e-01  1.2187762774481134e-01  1.5354281162883848e-01  1.1128239602738270e-01  1.4282526511782015e-01  9.8132201121187743e-02  1.0026877519644681e-01  1.2819936918791305e-01  1.7330949019446329e-01  1.5448704340983077e-01  1.1358651277184668e-01  1.3499125736141795e-01  9.7024763676056239e-02  1.1435523477237901e-01  1.5318643911807545e-01  1.2872530217536110e-01  9.3790645140603840e-02  1.0528272573081383e-01  7.4403701934869240e-02  8.2605208412124112e-02  1.1401105057081183e-01  8.7769421006338832e-02  1.1847501411983340e-01  8.9308249956522034e-02  1.1935509594697752e-01  5.6296895129664820e-02  1.5228129606173410e-01  1.5805698311945163e-01  1.1754222422785629e-01  1.4977861796001127e-01  1.6850969476523947e-01  1.1064060298496659e-01  1.4032024955067041e-01  8.3823119370189617e-02  6.3162748473293090e-02  1.8482530189100974e-01  1.9242288987999734e-01  1.8895850509419351e-01  1.7526902007879261e-01  1.3265828082577852e-01  1.9090391405506787e-01  6.3724463089973510e-02  2.3008158606076418e-01  2.0092627455963463e-01  5.9953486437881620e-02  1.7974993707133488e-01  5.0164834506701776e-02  2.2101433968012488e-01  2.1122603649285179e-01  7.1389017023439097e-02  1.9647019248750691e-01  2.1216000444955152e-01  4.9942284333457078e-02  2.0746996026103942e-01  6.2436937714240533e-02  1.9390455124938100e-01  1.9932076981247301e-01  1.9975221243894428e-01  8.6692125170258330e-02  7.7046054962561700e-02  6.4179286415206177e-02  8.5504146999597533e-02  9.2900486679779168e-02  2.2327670007595488e-01  2.1155728688252773e-01  2.3026863299887984e-01  2.2800488225644966e-01  2.4061875601839761e-01  2.2697007680989870e-01  2.8959159767913967e-02  2.9887616015444807e-02  2.1363481650673328e-02  9.5333154933204642e-02  2.3325293955480358e-01  2.5637765679783892e-01  1.8094833430981222e-01  7.2545765382945590e-02  6.3730666583821913e-02  1.3043780059108717e-01  1.9128773791738318e-01  2.1409866197767641e-01  9.3233125128359073e-02  2.3412471564098009e-01  2.5552308947904062e-01  2.1762978233547031e-01  2.1282790536135407e-01  2.2791489063273379e-01  2.5516017321177337e-01  2.1873152748015207e-01  2.2022747236005508e-01  2.2147934750697246e-01  2.5195299982326624e-01  2.4646426057117982e-01  7.5744445966352117e-02  5.4130895193529767e-02  2.6754081934087176e-01  8.0030790386467265e-02  2.3703937667606431e-01  2.2951494125026103e-01  1.9598638444045186e-01  2.6283496024868658e-01  4.6902543978880176e-02  2.4177513542312984e-01  3.6771887033958957e-02  3.8105811558210273e-02  2.4875570925276738e-01  3.9494479845381306e-02  4.1238860789466855e-02  3.7373341652072213e-02  6.8320537979048357e-02  7.8205669071861605e-02  6.0200778719046381e-02  2.8411887313824324e-01  2.6579656933734336e-01  2.5052010834040372e-01  2.2992217131291379e-02  2.5261965607443031e-02  4.5971380694646680e-02  3.8464521258202086e-02  4.1525776642257158e-02  5.2803250986778565e-02  3.2447665012568086e-02  4.6927814515613751e-02  2.1215786631194608e-01  2.8719324607922581e-01  2.4841730629009778e-01  2.4954605906331764e-01  2.8823137183872660e-01  2.5398131498511817e-01  2.5169986772258890e-01  2.5153314727629167e-01  2.8573452875570571e-01  2.8211027142383799e-01  2.5145600777104893e-01  2.5236856514365713e-01  2.4346675057021461e-01  2.1509683868657595e-01  1.6750567937005970e-01  2.1862252915049762e-01  2.2362871375757359e-01  2.5937525405744360e-01  1.9292451097138202e-01  2.3625472712050974e-01  2.0731434351106193e-01  2.4969880518553472e-01  5.4657908488665641e-02  2.8549961669848911e-01  2.5323753989317838e-01  2.4776059659372979e-01  2.1826041890060502e-01  2.1490245799472832e-01  1.9390172930419378e-01  3.3472386980894095e-02  2.8523137049310737e-01  2.4672307979570954e-01  1.8217186744258193e-01  2.8731189728819839e-01  1.9569370908954720e-01  2.3131998320801031e-01  2.3096302834710114e-01  2.3450358560390244e-01  2.6717894605166914e-01  2.6373695444546208e-01  2.2611753788203659e-01  2.8271242845500427e-01  2.5701129446283816e-01  2.5041018447373165e-01  2.5806789799336427e-01  2.9002440842152005e-01  1