<?xml version="1.0"?>
<VTKFile type="UnstructuredGrid"  version="0.1"  >
<UnstructuredGrid>
<Piece  NumberOfPoints="1235" NumberOfCells="2372">
<Points>
<DataArray  type="Float64"  NumberOfComponents="3"  format="ascii">0 0 0  0 1 0  1 1 0  1 0 0  1.1 -0.1 0  -0.1 -0.1 0  1.1 1.1 0  -0.1 1.1 0  0.5014297688963781 0.5013967548248381 0  0.2438058517056084 0.5429194792785581 0  0 0.9499999999997918 0  0 0.8999999999995836 0  0 0.8499999999996529 0  0 0.7999999999999998 0  0 0.7500000000003466 0  0 0.7000000000006934 0  0 0.6500000000010401 0  0 0.6000000000013869 0  0 0.5500000000017335 0  0 0.5000000000020587 0  0 0.4500000000018723 0  0 0.4000000000016644 0  0 0.3500000000014564 0  0 0.3000000000012483 0  0 0.2500000000010403 0  0 0.2000000000008322 0  0 0.1500000000006241 0  0 0.100000000000416 0  0 0.05000000000020799 0  0.04999999999989965 0 0  0.09999999999981467 0 0  0.1499999999997036 0 0  0.1999999999995579 0 0  0.2499999999994121 0 0  0.2999999999992664 0 0  0.3499999999991206 0 0  0.3999999999989749 0 0  0.4499999999988292 0 0  0.4999999999986943 0 0  0.5499999999988151 0 0  0.5999999999989468 0 0  0.6499999999990784 0 0  0.69999999999921 0 0  0.7499999999993417 0 0  0.7999999999994734 0 0  0.8499999999996051 0 0  0.8999999999997368 0 0  0.9499999999998684 0 0  1 0.04999999999989965 0  1 0.09999999999981467 0  1 0.1499999999997036 0  1 0.1999999999995579 0  1 0.2499999999994121 0  1 0.2999999999992664 0  1 0.3499999999991206 0  1 0.3999999999989749 0  1 0.4499999999988292 0  1 0.4999999999986943 0  1 0.5499999999988151 0  1 0.5999999999989468 0  1 0.6499999999990784 0  1 0.69999999999921 0  1 0.7499999999993417 0  1 0.7999999999994734 0  1 0.8499999999996051 0  1 0.8999999999997368 0  1 0.9499999999998684 0  0.9499999999997918 1 0  0.8999999999995836 1 0  0.8499999999996529 1 0  0.7999999999999998 1 0  0.7500000000003466 1 0  0.7000000000006934 1 0  0.6500000000010401 1 0  0.6000000000013869 1 0  0.5500000000017335 1 0  0.5000000000020587 1 0  0.4500000000018723 1 0  0.4000000000016644 1 0  0.3500000000014564 1 0  0.3000000000012483 1 0  0.2500000000010403 1 0  0.2000000000008322 1 0  0.1500000000006241 1 0  0.100000000000416 1 0  0.05000000000020799 1 0  -0.1 1.05000000000004 0  -0.1 1.000000000000079 0  -0.1 0.9500000000001624 0  -0.1 0.9000000000003032 0  -0.1 0.850000000000444 0  -0.1 0.8000000000005848 0  -0.1 0.7500000000007256 0  -0.1 0.7000000000008665 0  -0.1 0.6500000000010508 0  -0.1 0.6000000000012352 0  -0.1 0.5500000000014196 0  -0.1 0.500000000001539 0  -0.1 0.4500000000014195 0  -0.1 0.4000000000013 0  -0.1 0.3500000000011588 0  -0.1 0.3000000000010178 0  -0.1 0.2500000000008986 0  -0.1 0.2000000000007579 0  -0.1 0.1500000000006174 0  -0.1 0.1000000000005272 0  -0.1 0.05000000000040083 0  -0.1 2.671196597248127e-13 0  -0.1 -0.0499999999998666 0  -0.0500000000000906 -0.1 0  -1.730560139634463e-13 -0.1 0  0.04999999999975802 -0.1 0  0.09999999999961506 -0.1 0  0.1499999999994613 -0.1 0  0.199999999999302 -0.1 0  0.2499999999991446 -0.1 0  0.2999999999990088 -0.1 0  0.3499999999988296 -0.1 0  0.3999999999986936 -0.1 0  0.4499999999985143 -0.1 0  0.4999999999984002 -0.1 0  0.5499999999985247 -0.1 0  0.5999999999986493 -0.1 0  0.6499999999987955 -0.1 0  0.6999999999989417 -0.1 0  0.7499999999990659 -0.1 0  0.7999999999992116 -0.1 0  0.8499999999993573 -0.1 0  0.8999999999994526 -0.1 0  0.949999999999584 -0.1 0  0.9999999999997226 -0.1 0  1.049999999999861 -0.1 0  1.1 -0.0500000000000906 0  1.1 -1.730560139634463e-13 0  1.1 0.04999999999975802 0  1.1 0.09999999999961506 0  1.1 0.1499999999994613 0  1.1 0.199999999999302 0  1.1 0.2499999999991446 0  1.1 0.2999999999990088 0  1.1 0.3499999999988296 0  1.1 0.3999999999986936 0  1.1 0.4499999999985143 0  1.1 0.4999999999984002 0  1.1 0.5499999999985247 0  1.1 0.5999999999986493 0  1.1 0.6499999999987955 0  1.1 0.6999999999989417 0  1.1 0.7499999999990659 0  1.1 0.7999999999992116 0  1.1 0.8499999999993573 0  1.1 0.8999999999994526 0  1.1 0.949999999999584 0  1.1 0.9999999999997226 0  1.1 1.049999999999861 0  1.05000000000004 1.1 0  1.000000000000079 1.1 0  0.9500000000001624 1.1 0  0.9000000000003032 1.1 0  0.850000000000444 1.1 0  0.8000000000005848 1.1 0  0.7500000000007256 1.1 0  0.7000000000008665 1.1 0  0.6500000000010508 1.1 0  0.6000000000012352 1.1 0  0.5500000000014196 1.1 0  0.500000000001539 1.1 0  0.4500000000014195 1.1 0  0.4000000000013 1.1 0  0.3500000000011588 1.1 0  0.3000000000010178 1.1 0  0.2500000000008986 1.1 0  0.2000000000007579 1.1 0  0.1500000000006174 1.1 0  0.1000000000005272 1.1 0  0.05000000000040083 1.1 0  2.671196597248127e-13 1.1 0  -0.0499999999998666 1.1 0  0.2492831454218197 0.5679117224731943 0  0.258157247278782 0.5919025286986876 0  0.2699990207914767 0.6146083161524998 0  0.2841840684902275 0.6359571291960495 0  0.300880955497996 0.655381728268661 0  0.3197398304695566 0.6727863633455082 0  0.340043665391237 0.6884866931539956 0  0.3616890658655079 0.7023514562972074 0  0.384407259113012 0.7143920067621637 0  0.4080370182366375 0.7245359436778664 0  0.4324134231149815 0.7326730088694153 0  0.4574093983660716 0.738773332680616 0  0.4827904980202607 0.7429715268905526 0  0.508468184113231 0.7447932540347419 0  0.5341837987929327 0.7439807108820518 0  0.5596664340264802 0.7402883837346733 0  0.5845485327262154 0.7337169151874159 0  0.6085590759016528 0.7244257275416062 0  0.631393501155479 0.7125768569760446 0  0.6527591952396089 0.6982267631148321 0  0.6723947187264089 0.6815879896355782 0  0.6901314650288695 0.6629735611903889 0  0.7056330680747176 0.6424301162149604 0  0.7186774982840154 0.6202545593666056 0  0.7291560697382589 0.5967453301138209 0  0.7370830418926682 0.5722746108928322 0  0.7423758365815227 0.5470886004162416 0  0.744672688495734 0.5214505577267584 0  0.7442865619823287 0.4957305731020927 0  0.7414799260674667 0.4701346867811664 0  0.7365857282488911 0.4448731975732245 0  0.7295009656317936 0.4201694691067597 0  0.720285976350146 0.3961609133283176 0  0.7092824287928413 0.3729164415166093 0  0.6962600892105653 0.3507555669858021 0  0.6812701745641916 0.3298800277335199 0  0.6646068637091703 0.3103236903508087 0  0.6459460052036307 0.2927412948835518 0  0.6253335880062011 0.2774570479355742 0  0.6030001922081691 0.2648540233744142 0  0.5795233876658672 0.2545549712327466 0  0.5550530692888386 0.2469998200534193 0  0.5297161962692544 0.2434262815468605 0  0.5041135955398203 0.2434860945526547 0  0.4787526632925204 0.24696871024169 0  0.4539384403587024 0.253373833604081 0  0.4298563707129021 0.2621616509601626 0  0.4066524692500594 0.2730812047796193 0  0.3844363623082124 0.2858996827256681 0  0.3633647969372522 0.3005306864643609 0  0.3435686590430026 0.3168549905491093 0  0.3251803722823445 0.3347356907723238 0  0.3082120401230607 0.3539738506410727 0  0.2927860279037582 0.3744427774641754 0  0.2789572773329341 0.3960412812745929 0  0.2668933157907011 0.4186555136698169 0  0.2569665379858501 0.4422775074991068 0  0.2494259637288278 0.4667707839048812 0  0.2444344160438092 0.4918831115409508 0  0.2424413409825597 0.5173872546734121 0  0.2679848063306631 0.5506438006330905 0  0.2743692415127676 0.4612971681117978 0  0.3092488246412464 0.6310840752970965 0  0.5384644424592854 0.2648761298018577 0  0.4499096118616894 0.2779526311740981 0  0.6222605608413241 0.3031085046108244 0  0.3864069554756608 0.3110787102108902 0  0.333750544451482 0.3588836133296378 0  0.6655864829056948 0.6565923257845317 0  0.5869015263156957 0.7086870976402663 0  0.4972238095369325 0.7212132911175109 0  0.7120749609923288 0.5794972889241211 0  0.7226782637750188 0.4863565510514301 0  0.4248099206503528 0.7076101461305447 0  0.7040981686577453 0.4162631197232096 0  0.3611098967655235 0.6776312776050428 0  0.6747990572701051 0.3507252524626743 0  0.3049055222134472 0.3976075718477151 0  0.6286537632330024 0.6875107170358545 0  0.5432762834001714 0.7180315913453005 0  0.7218502094104617 0.5337339990623572 0  0.6928575817765604 0.6223158378851817 0  0.5836038962716766 0.2828893555818559 0  0.2824202021521405 0.5943636026683119 0  0.4947113929302163 0.2671273578703383 0  0.2649210911019697 0.5056131368564102 0  0.6949683588943874 0.3927183831701049 0  0.6781474581135857 0.4114378942907737 0  0.687654049558406 0.436326009848261 0  0.6608679427435912 0.4308806427020969 0  0.6718401805880877 0.45788165826602 0  0.6484522023047892 0.4536231948616561 0  0.6284292544134955 0.4294948614847959 0  0.6537322546090532 0.4797290174671237 0  0.6211553353800047 0.4739994275007158 0  0.6383064003524213 0.5102225674019035 0  0.5888374054670125 0.442515640011255 0  0.6033997864669098 0.3957224029375772 0  0.5577209663211673 0.4125525829310663 0  0.5696571266193385 0.3667663520091936 0  0.5231019403721434 0.3852149497805287 0  0.533283756720646 0.336891087494098 0  0.4898015316598264 0.3523539172009951 0  0.4835535621096111 0.3981770501980463 0  0.4489791867888562 0.3676704935798819 0  0.4422321821664847 0.4110705437156972 0  0.4174348273507082 0.3845512242145666 0  0.4023615824617092 0.4176342644646596 0  0.6009197264069248 0.3626614498076367 0  0.5023672507479284 0.3207760673140144 0  0.6742560316073924 0.5163230909025046 0  0.6494999802345917 0.5451681474754736 0  0.6103863598199916 0.5453312713382744 0  0.6329292362309252 0.5861752369275132 0  0.5862789655538737 0.5804539349693204 0  0.6024337695510484 0.6175031036678517 0  0.5635509278870916 0.6208798824534971 0  0.5867930347067464 0.6479745274395281 0  0.5404899838053928 0.6514015555840585 0  0.5240731732355665 0.61389300677829 0  0.4955673651828257 0.6503907961547082 0  0.4816282085862966 0.6113017246201434 0  0.4641536453749839 0.6379015301115827 0  0.4411921936511502 0.6146413412087526 0  0.420680033528011 0.6369458995111601 0  0.3959928428330978 0.6153561707524017 0  0.4203134434816463 0.5754727866955549 0  0.3741361755032643 0.5768786792207735 0  0.3986954342877706 0.5386049873151366 0  0.3539224982112888 0.5420950733724461 0  0.3773318215939976 0.5039069516487915 0  0.334722580
[...]
<PointData  Scalars="u"> 
<DataArray  type="Float64"  Name="u"  format="ascii">0.0000000000000000e+00  0.0000000000000000e+00  0.0000000000000000e+00  0.0000000000000000e+00  0.0000000000000000e+00  0.0000000000000000e+00  0.0000000000000000e+00  0.0000000000000000e+00  3.5347763035945923e-01  3.1466281400939561e-01  0.0000000000000000e+00  0.0000000000000000e+00  0.0000000000000000e+00  0.0000000000000000e+00  0.0000000000000000e+00  0.0000000000000000e+00  0.0000000000000000e+00  0.0000000000000000e+00  0.0000000000000000e+00  0.0000000000000000e+00  0.0000000000000000e+00  0.0000000000000000e+00  0.0000000000000000e+00  0.0000000000000000e+00  0.0000000000000000e+00  0.0000000000000000e+00  0.0000000000000000e+00  0.0000000000000000e+00  0.0000000000000000e+00  0.0000000000000000e+00  0.0000000000000000e+00  0.0000000000000000e+00  0.0000000000000000e+00  0.0000000000000000e+00  0.0000000000000000e+00  0.0000000000000000e+00  0.0000000000000000e+00  0.0000000000000000e+00  0.0000000000000000e+00  0.0000000000000000e+00  0.0000000000000000e+00  0.0000000000000000e+00  0.0000000000000000e+00  0.0000000000000000e+00  0.0000000000000000e+00  0.0000000000000000e+00  0.0000000000000000e+00  0.0000000000000000e+00  0.0000000000000000e+00  0.0000000000000000e+00  0.0000000000000000e+00  0.0000000000000000e+00  0.0000000000000000e+00  0.0000000000000000e+00  0.0000000000000000e+00  0.0000000000000000e+00  0.0000000000000000e+00  0.0000000000000000e+00  0.0000000000000000e+00  0.0000000000000000e+00  0.0000000000000000e+00  0.0000000000000000e+00  0.0000000000000000e+00  0.0000000000000000e+00  0.0000000000000000e+00  0.0000000000000000e+00  0.0000000000000000e+00  0.0000000000000000e+00  0.0000000000000000e+00  0.0000000000000000e+00  0.0000000000000000e+00  0.0000000000000000e+00  0.0000000000000000e+00  0.0000000000000000e+00  0.0000000000000000e+00  0.0000000000000000e+00  0.0000000000000000e+00  0.0000000000000000e+00  0.0000000000000000e+00  0.0000000000000000e+00  0.0000000000000000e+00  0.0000000000000000e+00  0.0000000000000000e+00  0.0000000000000000e+00  0.0000000000000000e+00  0.0000000000000000e+00  0.0000000000000000e+00  0.0000000000000000e+00  0.0000000000000000e+00  0.0000000000000000e+00  0.0000000000000000e+00  0.0000000000000000e+00  0.0000000000000000e+00  0.0000000000000000e+00  0.0000000000000000e+00  0.0000000000000000e+00  0.0000000000000000e+00  0.0000000000000000e+00  0.0000000000000000e+00  0.0000000000000000e+00  0.0000000000000000e+00  0.0000000000000000e+00  0.0000000000000000e+00  0.0000000000000000e+00  0.0000000000000000e+00  0.0000000000000000e+00  0.0000000000000000e+00  0.0000000000000000e+00  0.0000000000000000e+00  0.0000000000000000e+00  0.0000000000000000e+00  0.0000000000000000e+00  0.0000000000000000e+00  0.0000000000000000e+00  0.0000000000000000e+00  0.0000000000000000e+00  0.0000000000000000e+00  0.0000000000000000e+00  0.0000000000000000e+00  0.0000000000000000e+00  0.0000000000000000e+00  0.0000000000000000e+00  0.0000000000000000e+00  0.0000000000000000e+00  0.0000000000000000e+00  0.0000000000000000e+00  0.0000000000000000e+00  0.0000000000000000e+00  0.0000000000000000e+00  0.0000000000000000e+00  0.0000000000000000e+00  0.0000000000000000e+00  0.0000000000000000e+00  0.0000000000000000e+00  0.0000000000000000e+00  0.0000000000000000e+00  0.0000000000000000e+00  0.0000000000000000e+00  0.0000000000000000e+00  0.0000000000000000e+00  0.0000000000000000e+00  0.0000000000000000e+00  0.0000000000000000e+00  0.0000000000000000e+00  0.0000000000000000e+00  0.0000000000000000e+00  0.0000000000000000e+00  0.0000000000000000e+00  0.0000000000000000e+00  0.0000000000000000e+00  0.0000000000000000e+00  0.0000000000000000e+00  0.0000000000000000e+00  0.0000000000000000e+00  0.0000000000000000e+00  0.0000000000000000e+00  0.0000000000000000e+00  0.0000000000000000e+00  0.0000000000000000e+00  0.0000000000000000e+00  0.0000000000000000e+00  0.0000000000000000e+00  0.0000000000000000e+00  0.0000000000000000e+00  0.0000000000000000e+00  0.0000000000000000e+00  0.0000000000000000e+00  0.0000000000000000e+00  0.0000000000000000e+00  0.0000000000000000e+00  0.0000000000000000e+00  0.0000000000000000e+00  0.0000000000000000e+00  0.0000000000000000e+00  0.0000000000000000e+00  0.0000000000000000e+00  0.0000000000000000e+00  0.0000000000000000e+00  3.1496769411173448e-01  3.1558383499780485e-01  3.1639176063884156e-01  3.1702722285801943e-01  3.1792527602720388e-01  3.1873779422489740e-01  3.1926808352737185e-01  3.2028974496397750e-01  3.2041235691652548e-01  3.2004542849755663e-01  3.1978143811797982e-01  3.1948373214462633e-01  3.1900502175437018e-01  3.1840099640800462e-01  3.1783757610219887e-01  3.1762321958564493e-01  3.1754755075391344e-01  3.1730913578741121e-01  3.1723501664822729e-01  3.1759178530101101e-01  3.1719675992327462e-01  3.1729711011733475e-01  3.1759223209965798e-01  3.1749896978562692e-01  3.1742289327919493e-01  3.1750069696197830e-01  3.1801362512344972e-01  3.1822616486902300e-01  3.1899853461675409e-01  3.1978143424681127e-01  3.1936460512426479e-01  3.1937671998893347e-01  3.2003170048471646e-01  3.2013687675489938e-01  3.1974415750789320e-01  3.1900830423002263e-01  3.1802833003642428e-01  3.1729911792917048e-01  3.1670001684557952e-01  3.1615397507735288e-01  3.1540519389532484e-01  3.1487133808480805e-01  3.1492092680082884e-01  3.1545798826382387e-01  3.1669178176261914e-01  3.1786691147025548e-01  3.1871062872295669e-01  3.1972677276822531e-01  3.2052138879587194e-01  3.2098469302832755e-01  3.2121712502426131e-01  3.2111112577420181e-01  3.2050276359695229e-01  3.2017453428213566e-01  3.1958430159571904e-01  3.1851485604934221e-01  3.1798026889796488e-01  3.1710825813235044e-01  3.1591522592892607e-01  3.1514514175874592e-01  3.3003101872439711e-01  3.3188042101723403e-01  3.3211039940402870e-01  3.2986204526710489e-01  3.3208176017900826e-01  3.3122639464272008e-01  3.3376317100295699e-01  3.3418150157265236e-01  3.3137277982639657e-01  3.3211269441614588e-01  3.3304690270455040e-01  3.3184653214670673e-01  3.3261071071526360e-01  3.3349802475358664e-01  3.3337040092825299e-01  3.3245120659494237e-01  3.3106039619314470e-01  3.3367341749540141e-01  3.3174188072158906e-01  3.3269780718568454e-01  3.3231403365036383e-01  3.3144223317229571e-01  3.3131801366354657e-01  3.3018837850361588e-01  3.3109246360280914e-01  3.3048860579195666e-01  3.3310033692184277e-01  3.3609470024884874e-01  3.3619719737584391e-01  3.3923311107414955e-01  3.3912580671797665e-01  3.4133145758042716e-01  3.4252333917957523e-01  3.4141094460094407e-01  3.4548060070388287e-01  3.4370252522767197e-01  3.4820473091335485e-01  3.4222542872250999e-01  3.4852903432864868e-01  3.4191182876531950e-01  3.4742990787774869e-01  3.3934250355006690e-01  3.4234029188964682e-01  3.4855214233633514e-01  3.4313222967217194e-01  3.4775247385039870e-01  3.4308610455884908e-01  3.4507103980764892e-01  3.3892914599073043e-01  3.3786936016798980e-01  3.3882338828453579e-01  3.4134462018594919e-01  3.4658312221083254e-01  3.4055873147214921e-01  3.4661617249292426e-01  3.4109292156258719e-01  3.4365476212560253e-01  3.3895118441679484e-01  3.4098719775096320e-01  3.4669318441458402e-01  3.4201944744612978e-01  3.4676247600378918e-01  3.4291402284645300e-01  3.4465908259573746e-01  3.4086715755355668e-01  3.4111080405683636e-01  3.4766421690419230e-01  3.4201679516626943e-01  3.4769960237298281e-01  3.4134251287473300e-01  3.4621818201931259e-01  3.3977548853293427e-01  3.3880778740085304e-01  3.4185095640465840e-01  3.3698286948247164e-01  3.3684286467823793e-01  3.4050121014607981e-01  3.3852114969396585e-01  3.5028472277484307e-01  3.3700301605531646e-01  3.3759161210923283e-01  3.3478867253884026e-01  3.3708672956825936e-01  3.3895024681969449e-01  3.3600506168764915e-01  3.3770842855610245e-01  3.3792370052078485e-01  3.3805470037079843e-01  3.5040372283692556e-01  3.3747776122390410e-01  3.3561484203733927e-01  3.3521115506271665e-01  3.3677101704570117e-01  3.3845371448780293e-01  3.3863863825615487e-01  3.3642465493112805e-01  3.3741509814236820e-01  3.3695270473782729e-01  3.3570985692150135e-01  3.3769221787548359e-01  3.3890995259045326e-01  3.3577273953229686e-01  3.3531585772789174e-01  3.3784380834370298e-01  3.3506549704212540e-01  3.5065108337731105e-01  3.3447462615577178e-01  3.5052478787232594e-01  3.3457135795810189e-01  3.3883573736533101e-01  3.3618582013955417e-01  3.3523624081433678e-01  3.5143989927913261e-01  3.3568847051744594e-01  3.3441816388150264e-01  3.3458436730924507e-01  3.3307959513723356e-01  3.4240396814637891e-01  3.3870296189948046e-01  3.3738128260426092e-01  3.3624516709080710e-01  3.3299220585834027e-01  3.5114467989005693e-01  3.3566019498013078e-01  3.3456606050868920e-01  3.3448282791863465e-01  3.3664605054182406e-01  3.3318809846913405e-01  3.3389368116086932e-01  3.3226951778384461e-01  3.3292964495562072e-01  3.3241546674129474e-01  3.3360207540499759e-01  3.4688038184956277e-01  3.3198989333011619e-01  3.3357976215077467e-01  3.3664972604299098e-01  3.3423315263308151e-01  3.3342226124805757e-01  3.3238324248123796e-01  3.3754533212186633e-01  3.3443152915123242e-01  3.3291459288736824e-01  3.3891057142903858e-01  3.3281497846718633e-01  3.3171842111859851e-01  3.3405867605954520e-01  3.3667033258834200e-01  3.3177218068708414e-01  3.3455810241541450e-01  3.3565703217924470e-01  3.3163744874102563e-01  3.3570033493047757e-01  3.3184413377522970e-01  3.3639136427186078e-01  3.3386533772309845e-01  3.3068990653709029e-01  3.3065983785387326e-01  3.3085686733843939e-01  3.3210829030989852e-01  3.3074216021045488e-01  3.3345717599288027e-01  3.3650027214130207e-01  3.4999986344164469e-01  3.3508249581756494e-01  3.4991849264170144e-01  3.3015208561293569e-01  3.3256813472925628e-01  3.3286339463804454e-01  3.2921225822479200e-01  3.3048929988084741e-01  3.3375776945627095e-01  3.3266751182430970e-01  3.5082601748040182e-01  3.3053488321522828e-01  3.3273702459272092e-01  3.3577500757612283e-01  3.3236673075001200e-01  3.3994451996643826e-01  3.4958429151636228e-01  3.3541113497707287e-01  3.5325194542256977e-01  3.3077623625946451e-01  3.3458598424195057e-01  3.3458495154080348e-01  3.3289651254332198e-01  3.3016030836026755e-01  3.3481815821047284e-01  3.3626870263286435e-01  3.3510088729281018e-01  3.3757050962117247e-01  3.3594750805563672e-01  3.5142570334404116e-01  3.3580361759103056e-01  3.3354270942778219e-01  3.3379900932474788e-01  3.3423819504857261e-01  3.5260690637064157e-01  3.3302723398141015e-01  3.5279857956970184e-01  3.2857842566768813e-01  3.4062295369206552e-01  3.3077566325938657e-01  3.3415858098107393e-01  3.3767569324971397e-01  3.3403261496711384e-01  3.3636856805041204e-01  3.2925566284885754e-01  3.3677387659677926e-01  3.3909620666794271e-01  3.5271981659008284e-01  3.3564132156259546e-01  3.3987423962972152e-01  3.3334464228484045e-01  3.3581932657173780e-01  3.3646194810211427e-01  3.3823826813705260e-01  3.3680328065487242e-01  3.3787461023157167e-01  3.3636991449776710e-01  3.4078091015533912e-01  3.3567004057585531e-01  3.3591225797077268e-01  3.3317969651645324e-01  3.3981682184376572e-01  3.3204767713007111e-01  3.3819300328061414e-01  3.4787909349156915e-01  3.3756570574721328e-01  3.4003569809180439e-01  3.3209409168031850e-01  3.4102523419040032e-01  3.5289334415213802e-01  3.3744255600036938e-01  3.3701657060885076e-01  3.4088635482782959e-01  3.3860712145120525e-01  3.3467767023628797e-01  3.3895817619541324e-01  3.3819138267536253e-01  3.3358795271987568e-01  3.3301254414025139e-01  3.3892317391268878e-01  2.9387045912993037e-01  2.8781323538198916e-01  2.8224842800525390e-01  2.9108016407174425e-01  2.9382908623750331e-01  2.9239613189415387e-01  2.9591577537451541e-01  2.9779585637188960e-01  2.8782780614614428e-01  2.8907404848592427e-01  2.8699542926095450e-01  2.8431489085239364e-01  2.8451143930931044e-01  2.8473827793012607e-01  1.5037355585950886e-02  2.9043255988357369e-01  1.7855733724710120e-02  1.5412504966492793e-02  2.9482986872763983e-01  1.7495638208212847e-02  1.5042401566242656e-02  1.6054909259294956e-02  1.6510271997993618e-02  2.8896508178315594e-01  1.7265582507801892e-02  2.8942599020421339e-01  2.8885890435586642e-01  2.8485021249180692e-01  2.9055642656324981e-01  2.8396753991320317e-01  2.8934257249170364e-01  3.0805103986191032e-02  2.6028986231265771e-02  2.7129328893849600e-02  2.7198435266153818e-02  2.8979992713993732e-02  3.0365444389379260e-02  3.1920012320679404e-02  3.0186896457689957e-02  3.0517868925137945e-02  3.6324198597143455e-02  3.3687956901653875e-02  3.7095887174551471e-02  5.7833189619702630e-03  5.9926297290615813e-03  6.6950682833717507e-03  7.3926360687400277e-03  6.3652737667911248e-03  5.9704200504921571e-03  6.6881699271691460e-03  6.8277366736218042e-03  2.8063169024571694e-01  2.4737326340652457e-01  2.4637733936409614e-01  2.0809590351784676e-01  2.0591783096147614e-01  2.0444523086738112e-01  1.6612624014153735e-01  1.7003646322902558e-01  1.2806960395147762e-01  1.2628939905948275e-01  1.6225895623819089e-01  1.2130263165671630e-01  1.5312022918516932e-01  1.1306353658043677e-01  1.4172808772368212e-01  1.0321029290023875e-01  1.2732686231961171e-01  9.2040322505553163e-02  1.1005735008615634e-01  7.7880710105855441e-02  9.1585347849929333e-02  1.2629069258902317e-01  1.0461908960933022e-01  1.4135542805210874e-01  1.1015478252464156e-01  7.2258036803395626e-02  1.5229338406133885e-01  1.2091340858554644e-01  1.5673728331699818e-01  1.2308337081672305e-01  1.6346866484548966e-01  9.0694601653182980e-02  1.2291351860847242e-01  1.6432035564566272e-01  1.1964261033221633e-01  1.5150930529129125e-01  1.7607185306823045e-01  1.7041842311901145e-01  6.8439453004272538e-02  1.3330336478447302e-01  1.9328529586798182e-01  1.0849331866687581e-01  1.3962630974486134e-01  9.2746247581713445e-02  2.0110209368635656e-01  1.8545987610914902e-01  1.7319279279946209e-01  1.2906248463733316e-01  1.6340699103965534e-01  1.1485569705465035e-01  1.3891976957318020e-01  9.6548959435551238e-02  1.1816330831944433e-01  1.6195588816209003e-01  1.3878768443748174e-01  9.8103464696967971e-02  1.1533409416018935e-01  7.8661523116291571e-02  9.1826109214894591e-02  1.3461870079553032e-01  1.0214677991342792e-01  1.3767540425891311e-01  1.0824845588982852e-01  1.4017117768157619e-01  1.1057369097738268e-01  1.4674227571323273e-01  1.0904208357201171e-01  1.3704716954760049e-01  8.3290597379280060e-02  1.0147738616595972e-01  1.2663538154853843e-01  9.0247156067593468e-02  1.1204427418746267e-01  7.7689160702759510e-02  1.5269462394577635e-01  1.3460103435842830e-01  1.7996743954996638e-01  1.8323019299834287e-01  1.6214496128434863e-01  1.7502218876335932e-01  1.1497446909001953e-01  1.3242683087411145e-01  6.9844862749163933e-02  5.9052652590393266e-02  1.8508595509643708e-01  9.0979311166114907e-02  1.0575981470605074e-01  1.4926023517748810e-01  1.2044729486427737e-01  1.6959518533151416e-01  1.3303693096322597e-01  1.7498781562105650e-01  1.4588147314044728e-01  1.0240465037242401e-01  1.0987114599563813e-01  1.4797575706064328e-01  1.1502511402046366e-01  1.5103008258038306e-01  1.1793909901055365e-01  1.5494865078469475e-01  1.1727716696535967e-01  1.4678470388206707e-01  1.1145123888006293e-01  1.3755987286532204e-01  1.0210886411249832e-01  1.2481445800700522e-01  9.0286781660605775e-02  1.0889522912237536e-01  8.8922849522136568e-02  7.1216362540405406e-02  6.1497534678162678e-02  1.4557170172961445e-01  1.2663693209192975e-01  9.2739442235865110e-02  1.0576110521938570e-01  1.4317729943844626e-01  1.1560185271548365e-01  7.7357619168527389e-02  1.7550003126444932e-01  1.6351807521103059e-01  1.2640999348976234e-01  4.6579351683258503e-02  1.7351117259722257e-01  1.3217383463700977e-01  3.8844006951565951e-02  1.7459396135373090e-01  1.3357889995773067e-01  1.7229453724685967e-01  1.3074436405614562e-01  1.7306161454112604e-01  1.2175131185419436e-01  1.5376775604846077e-01  1.1143063217047183e-01  1.4339148866731452e-01  9.7689403311346804e-02  1.0069460333928183e-01  1.2901700283057557e-01  1.7430879104576660e-01  1.5565856306875780e-01  1.1452952654646399e-01  1.3619614069216548e-01  9.7967036707521563e-02  1.1547866371332229e-01  1.5456490450329946e-01  1.2997174197748282e-01  9.4769736467401958e-02  1.0635063797733098e-01  7.5205099964473401e-02  8.3464931537252485e-02  1.1512985726363710e-01  8.8663094817202234e-02  1.1960617631831304e-01  9.0206838179810761e-02  1.2046517606068279e-01  5.6912273631356182e-02  1.5359573377206870e-01  1.5934636019858769e-01  1.1858502550411552e-01  1.5092438500901148e-01  1.6998086176257510e-01  1.1153876543076989e-01  1.4124254239108508e-01  8.4600471293619986e-02  6.3834935311798888e-02  1.8595609167795266e-01  1.9387078627984891e-01  1.9044797403871203e-01  1.7612831563941839e-01  1.3329129971311746e-01  1.9210146366542577e-01  6.4434983888566541e-02  2.3173036311134226e-01  2.0225909100946554e-01  6.0016946469746785e-02  1.8001876077907641e-01  5.0533701944167987e-02  2.2198248350387481e-01  2.1162160610336866e-01  7.1792669901852971e-02  1.9805834792654606e-01  2.1384906916028909e-01  5.0213170081852034e-02  2.0771652858553782e-01  6.3097694869467424e-02  1.9446520629796726e-01  1.9944970893230571e-01  1.9967324757667276e-01  8.7374816268717750e-02  7.7742337897914834e-02  6.4853622501924266e-02  8.5312558567114796e-02  9.2579413378519063e-02  2.2429920508919596e-01  2.1220375971028921e-01  2.3157240929547915e-01  2.2972526212662508e-01  2.4247713885504435e-01  2.2868643972890909e-01  2.9188578657564655e-02  3.0071800204957318e-02  2.1524977411191658e-02  9.5166911213459812e-02  2.3481718373543939e-01  2.5835303773086898e-01  1.8246104915465489e-01  7.3255229557011109e-02  6.4342843576935954e-02  1.3051542706520719e-01  1.9259550136769635e-01  2.1365365310678533e-01  9.3307260722908292e-02  2.3448854886887441e-01  2.5599299077048610e-01  2.1696144852184213e-01  2.1233718031413282e-01  2.2811286957782353e-01  2.5545137222770026e-01  2.1855656205052809e-01  2.2078798831829846e-01  2.2253375987846519e-01  2.5335491346254840e-01  2.4697445835941650e-01  7.6353905109537296e-02  5.4643425381196410e-02  2.6931383741269166e-01  8.0200743288405485e-02  2.3712123474412367e-01  2.3067300377000455e-01  1.9705280336841066e-01  2.6399535162626786e-01  4.6973328905277313e-02  2.4309677807745111e-01  3.6828065349098542e-02  3.8143924076767526e-02  2.4808696220601245e-01  3.9937855241419136e-02  4.1695665169522604e-02  3.7786312696949334e-02  6.8367607597773133e-02  7.8695961305161100e-02  6.0469422221871315e-02  2.8278484640794893e-01  2.6701918544395647e-01  2.5146191403288565e-01  2.3264692614712118e-02  2.5557632620417204e-02  4.6417594043689787e-02  3.8907189036018405e-02  4.1554286417448301e-02  5.2836082970444245e-02  3.2489632893343001e-02  4.6988725644459585e-02  2.1240767536444469e-01  2.8604677425981484e-01  2.4786541053515132e-01  2.4930972077244340e-01  2.8803845515456578e-01  2.5394258569700434e-01  2.5183538532280908e-01  2.5140840153507676e-01  2.8545139538179554e-01  2.8217601388557845e-01  2.5197313032503388e-01  2.5316806622038451e-01  2.4374953832057403e-01  2.1579362609360467e-01  1.6759341925285426e-01  2.1876364452783476e-01  2.2379154572234680e-01  2.5957151372041071e-01  1.9306015015897057e-01  2.3645001693413203e-01  2.0747644590162612e-01  2.4990218596211869e-01  5.4878439379634839e-02  2.8573544116249733e-01  2.5350393820040601e-01  2.4795804032961891e-01  2.1842361879245589e-01  2.1509312716537435e-01  1.9423335158346500e-01  3.3982994180638673e-02  2.8536526544162694e-01  2.4714038612240716e-01  1.8225421421733856e-01  2.8730453316185339e-01  1.9666196007710748e-01  2.3237228529849369e-01  2.3187673821412610e-01  2.3574730937404298e-01  2.6826116624893420e-01  2.6464504259805843e-01  2.2688444276309946e-01  2.8351011611768562e-01  2.5794417296898731e-01  2.5158118187608258e-01  2.5860869467448994e-01  2.9029111042471983e-01  1