<?xml version="1.0"?>
<VTKFile type="UnstructuredGrid"  version="0.1"  >
<UnstructuredGrid>
<Piece  NumberOfPoints="1235" NumberOfCells="2372">
<Points>
<DataArray  type="Float64"  NumberOfComponents="3"  format="ascii">0 0 0  0 1 0  1 1 0  1 0 0  1.1 -0.1 0  -0.1 -0.1 0  1.1 1.1 0  -0.1 1.1 0  0.5017718567538346 0.5016883214874887 0  0.2448436431830325 0.5429837667941918 0  0 0.9499999999997918 0  0 0.8999999999995836 0  0 0.8499999999996529 0  0 0.7999999999999998 0  0 0.7500000000003466 0  0 0.7000000000006934 0  0 0.6500000000010401 0  0 0.6000000000013869 0  0 0.5500000000017335 0  0 0.5000000000020587 0  0 0.4500000000018723 0  0 0.4000000000016644 0  0 0.3500000000014564 0  0 0.3000000000012483 0  0 0.2500000000010403 0  0 0.2000000000008322 0  0 0.1500000000006241 0  0 0.100000000000416 0  0 0.05000000000020799 0  0.04999999999989965 0 0  0.09999999999981467 0 0  0.1499999999997036 0 0  0.1999999999995579 0 0  0.2499999999994121 0 0  0.2999999999992664 0 0  0.3499999999991206 0 0  0.3999999999989749 0 0  0.4499999999988292 0 0  0.4999999999986943 0 0  0.5499999999988151 0 0  0.5999999999989468 0 0  0.6499999999990784 0 0  0.69999999999921 0 0  0.7499999999993417 0 0  0.7999999999994734 0 0  0.8499999999996051 0 0  0.8999999999997368 0 0  0.9499999999998684 0 0  1 0.04999999999989965 0  1 0.09999999999981467 0  1 0.1499999999997036 0  1 0.1999999999995579 0  1 0.2499999999994121 0  1 0.2999999999992664 0  1 0.3499999999991206 0  1 0.3999999999989749 0  1 0.4499999999988292 0  1 0.4999999999986943 0  1 0.5499999999988151 0  1 0.5999999999989468 0  1 0.6499999999990784 0  1 0.69999999999921 0  1 0.7499999999993417 0  1 0.7999999999994734 0  1 0.8499999999996051 0  1 0.8999999999997368 0  1 0.9499999999998684 0  0.9499999999997918 1 0  0.8999999999995836 1 0  0.8499999999996529 1 0  0.7999999999999998 1 0  0.7500000000003466 1 0  0.7000000000006934 1 0  0.6500000000010401 1 0  0.6000000000013869 1 0  0.5500000000017335 1 0  0.5000000000020587 1 0  0.4500000000018723 1 0  0.4000000000016644 1 0  0.3500000000014564 1 0  0.3000000000012483 1 0  0.2500000000010403 1 0  0.2000000000008322 1 0  0.1500000000006241 1 0  0.100000000000416 1 0  0.05000000000020799 1 0  -0.1 1.05000000000004 0  -0.1 1.000000000000079 0  -0.1 0.9500000000001624 0  -0.1 0.9000000000003032 0  -0.1 0.850000000000444 0  -0.1 0.8000000000005848 0  -0.1 0.7500000000007256 0  -0.1 0.7000000000008665 0  -0.1 0.6500000000010508 0  -0.1 0.6000000000012352 0  -0.1 0.5500000000014196 0  -0.1 0.500000000001539 0  -0.1 0.4500000000014195 0  -0.1 0.4000000000013 0  -0.1 0.3500000000011588 0  -0.1 0.3000000000010178 0  -0.1 0.2500000000008986 0  -0.1 0.2000000000007579 0  -0.1 0.1500000000006174 0  -0.1 0.1000000000005272 0  -0.1 0.05000000000040083 0  -0.1 2.671196597248127e-13 0  -0.1 -0.0499999999998666 0  -0.0500000000000906 -0.1 0  -1.730560139634463e-13 -0.1 0  0.04999999999975802 -0.1 0  0.09999999999961506 -0.1 0  0.1499999999994613 -0.1 0  0.199999999999302 -0.1 0  0.2499999999991446 -0.1 0  0.2999999999990088 -0.1 0  0.3499999999988296 -0.1 0  0.3999999999986936 -0.1 0  0.4499999999985143 -0.1 0  0.4999999999984002 -0.1 0  0.5499999999985247 -0.1 0  0.5999999999986493 -0.1 0  0.6499999999987955 -0.1 0  0.6999999999989417 -0.1 0  0.7499999999990659 -0.1 0  0.7999999999992116 -0.1 0  0.8499999999993573 -0.1 0  0.8999999999994526 -0.1 0  0.949999999999584 -0.1 0  0.9999999999997226 -0.1 0  1.049999999999861 -0.1 0  1.1 -0.0500000000000906 0  1.1 -1.730560139634463e-13 0  1.1 0.04999999999975802 0  1.1 0.09999999999961506 0  1.1 0.1499999999994613 0  1.1 0.199999999999302 0  1.1 0.2499999999991446 0  1.1 0.2999999999990088 0  1.1 0.3499999999988296 0  1.1 0.3999999999986936 0  1.1 0.4499999999985143 0  1.1 0.4999999999984002 0  1.1 0.5499999999985247 0  1.1 0.5999999999986493 0  1.1 0.6499999999987955 0  1.1 0.6999999999989417 0  1.1 0.7499999999990659 0  1.1 0.7999999999992116 0  1.1 0.8499999999993573 0  1.1 0.8999999999994526 0  1.1 0.949999999999584 0  1.1 0.9999999999997226 0  1.1 1.049999999999861 0  1.05000000000004 1.1 0  1.000000000000079 1.1 0  0.9500000000001624 1.1 0  0.9000000000003032 1.1 0  0.850000000000444 1.1 0  0.8000000000005848 1.1 0  0.7500000000007256 1.1 0  0.7000000000008665 1.1 0  0.6500000000010508 1.1 0  0.6000000000012352 1.1 0  0.5500000000014196 1.1 0  0.500000000001539 1.1 0  0.4500000000014195 1.1 0  0.4000000000013 1.1 0  0.3500000000011588 1.1 0  0.3000000000010178 1.1 0  0.2500000000008986 1.1 0  0.2000000000007579 1.1 0  0.1500000000006174 1.1 0  0.1000000000005272 1.1 0  0.05000000000040083 1.1 0  2.671196597248127e-13 1.1 0  -0.0499999999998666 1.1 0  0.25027592503787 0.56791091138045 0  0.2590588873699652 0.5918581416679304 0  0.2707807074671191 0.6145589580248214 0  0.2848782215864576 0.6359066687993716 0  0.301458188459578 0.6553749219159078 0  0.3201940538055208 0.6728693999155927 0  0.3404173504292305 0.6886401793001519 0  0.362012034059017 0.7025673083277597 0  0.3846947724273426 0.7146601675786121 0  0.4083027833193453 0.7248441196696266 0  0.4326663667735947 0.7330055777854541 0  0.4576591142885699 0.7391105897136054 0  0.4830459710857734 0.7432605336550071 0  0.5087234248712423 0.7450304746765652 0  0.5344308463868507 0.7441640274189547 0  0.5599000278913924 0.7404348478492422 0  0.5847665743093156 0.733844328218639 0  0.6087630800189247 0.7245447408000418 0  0.6315782731066781 0.7126856767530929 0  0.6529321349113967 0.6983392233804131 0  0.6725637051831235 0.6817157912981688 0  0.690281204644119 0.6631046499631689 0  0.7057764986737475 0.6425736448850391 0  0.7188324035787916 0.6204208575192435 0  0.7293354391108019 0.5969358697884289 0  0.7372789280316576 0.5724847523985194 0  0.7425754823048422 0.547311285065213 0  0.7449236015866426 0.5216869002786414 0  0.7445873674401231 0.4959733129458288 0  0.7418230979390854 0.4703755950553613 0  0.7369380939898668 0.4451144543996278 0  0.7298500698723404 0.4204146302802872 0  0.7206205490837844 0.3964137869455556 0  0.7095554764622815 0.3732018561399087 0  0.6964746515826938 0.3510829660282026 0  0.6814351106356439 0.3302559351806432 0  0.664687076983862 0.3107914391107272 0  0.6459720601233999 0.2933132874769954 0  0.6253367582253097 0.2781180264947103 0  0.6030298419715203 0.2655565118473162 0  0.5795713882133453 0.255336552293684 0  0.5551265055251031 0.2478979639048221 0  0.5298600660888688 0.2443052480671635 0  0.5043219994998761 0.2442807878616181 0  0.4790013683108458 0.2476298319775515 0  0.4541970028798557 0.2538950330295585 0  0.430107775376379 0.2625644518819437 0  0.4068859389935988 0.2733879364998168 0  0.3846513830848846 0.2861390625051984 0  0.3635607939117945 0.3007212553823853 0  0.3437492847624146 0.3170132891794879 0  0.3253533173078124 0.3348748704048461 0  0.3083998445517802 0.3541138382266881 0  0.2930154176688355 0.3745986660027165 0  0.2792606427153519 0.3962247829582204 0  0.2673081004102775 0.4188704660209336 0  0.2575082568521614 0.4425103292792644 0  0.2500992040970083 0.4670004970779608 0  0.2452528144098651 0.4920852989806809 0  0.2433842556150077 0.5175313021288032 0  0.2689068933361682 0.5507028803240194 0  0.2749768699266287 0.4614708856218748 0  0.3098939871140204 0.6311312689217697 0  0.5385894625722339 0.2656840390779006 0  0.4501208843216656 0.2784289347005894 0  0.622346081441198 0.303713320452967 0  0.3866055154204803 0.3113246430516701 0  0.3339655084424575 0.3590383314521992 0  0.6657625544898816 0.6567385932181062 0  0.5871185112977976 0.7088353100468058 0  0.4974758014927217 0.7214745934439981 0  0.7122778875905066 0.5796951802072604 0  0.7229905579416805 0.4865951644363771 0  0.4250999044722567 0.7079164109155316 0  0.7044287406661793 0.4165385679412469 0  0.3615065152562165 0.6778341097067165 0  0.675011202928167 0.3511066031773477 0  0.305218493380228 0.3977609190125875 0  0.6288468988717506 0.6876454731716202 0  0.5435131288053814 0.7182203339523588 0  0.7220906675366928 0.5339549777231473 0  0.6930311168702168 0.6224786774571445 0  0.583696086849222 0.2835955474377308 0  0.2832312426200956 0.5943800967034181 0  0.494895730155716 0.2678127514958648 0  0.2657422581510615 0.5057458109730281 0  0.6952707379750187 0.3930235195311784 0  0.6784561633476875 0.4117562255372206 0  0.6879787290814258 0.4366114463538125 0  0.6611771287113067 0.4312025679732572 0  0.6721556267774876 0.4581660966311528 0  0.6487593892300427 0.4539328926497891 0  0.6287243054012259 0.4298534133545875 0  0.6540351183682558 0.480008727963005 0  0.6214570699682314 0.4743065456046711 0  0.6385960412488519 0.5104842157037065 0  0.5891283765668462 0.4428804007452274 0  0.6036604640207417 0.3961574226101471 0  0.5579873065135226 0.4129714060033731 0  0.5698767371353156 0.3672773625301295 0  0.5233392515005983 0.3856686621133861 0  0.5334689103652838 0.3374623492130802 0  0.4900060058845817 0.35282607105694 0  0.4838094672454141 0.3985605170099097 0  0.4492055870911718 0.3680320770264588 0  0.4425195833381156 0.4113722526028779 0  0.41769214468981 0.3848305921102666 0  0.40268348173794 0.4178655184907694 0  0.6011373980279809 0.363163342634761 0  0.5025436915252267 0.3213402859107904 0  0.6745347685589249 0.5165621586563141 0  0.6497632801034705 0.5453981390180508 0  0.6106651799343368 0.5455784381302422 0  0.6331716658363986 0.5863832295491526 0  0.5865526944910745 0.580687782679536 0  0.602675886341717 0.6177053920535184 0  0.5638174323221674 0.6211030659574839 0  0.58702892209738 0.6481673214127334 0  0.5407547111205204 0.6516276133281179 0  0.5243751562147658 0.6141404530762097 0  0.4958687519712511 0.6506496874946146 0  0.4819762732531162 0.6115626219481217 0  0.4644995589839855 0.638169696565362 0  0.4415934161750749 0.6148988048348003 0  0.4210865022878401 0.6372025054895385 0  0.3964735880371617 0.6155821314128265 0  0.420778908284257 0.5757043862926153 0  0.3747028053554052 0.57706320489424 0  0.3992038653993316 0.5388076794791524 0  0.3545410302051999 0.5422478261540549 0  0.3778512776878822 0.5040838669106904 0  0.3353472223189557 0.
[...]
<PointData  Scalars="u"> 
<DataArray  type="Float64"  Name="u"  format="ascii">0.0000000000000000e+00  0.0000000000000000e+00  0.0000000000000000e+00  0.0000000000000000e+00  0.0000000000000000e+00  0.0000000000000000e+00  0.0000000000000000e+00  0.0000000000000000e+00  3.5313267130100995e-01  3.1459492548668483e-01  0.0000000000000000e+00  0.0000000000000000e+00  0.0000000000000000e+00  0.0000000000000000e+00  0.0000000000000000e+00  0.0000000000000000e+00  0.0000000000000000e+00  0.0000000000000000e+00  0.0000000000000000e+00  0.0000000000000000e+00  0.0000000000000000e+00  0.0000000000000000e+00  0.0000000000000000e+00  0.0000000000000000e+00  0.0000000000000000e+00  0.0000000000000000e+00  0.0000000000000000e+00  0.0000000000000000e+00  0.0000000000000000e+00  0.0000000000000000e+00  0.0000000000000000e+00  0.0000000000000000e+00  0.0000000000000000e+00  0.0000000000000000e+00  0.0000000000000000e+00  0.0000000000000000e+00  0.0000000000000000e+00  0.0000000000000000e+00  0.0000000000000000e+00  0.0000000000000000e+00  0.0000000000000000e+00  0.0000000000000000e+00  0.0000000000000000e+00  0.0000000000000000e+00  0.0000000000000000e+00  0.0000000000000000e+00  0.0000000000000000e+00  0.0000000000000000e+00  0.0000000000000000e+00  0.0000000000000000e+00  0.0000000000000000e+00  0.0000000000000000e+00  0.0000000000000000e+00  0.0000000000000000e+00  0.0000000000000000e+00  0.0000000000000000e+00  0.0000000000000000e+00  0.0000000000000000e+00  0.0000000000000000e+00  0.0000000000000000e+00  0.0000000000000000e+00  0.0000000000000000e+00  0.0000000000000000e+00  0.0000000000000000e+00  0.0000000000000000e+00  0.0000000000000000e+00  0.0000000000000000e+00  0.0000000000000000e+00  0.0000000000000000e+00  0.0000000000000000e+00  0.0000000000000000e+00  0.0000000000000000e+00  0.0000000000000000e+00  0.0000000000000000e+00  0.0000000000000000e+00  0.0000000000000000e+00  0.0000000000000000e+00  0.0000000000000000e+00  0.0000000000000000e+00  0.0000000000000000e+00  0.0000000000000000e+00  0.0000000000000000e+00  0.0000000000000000e+00  0.0000000000000000e+00  0.0000000000000000e+00  0.0000000000000000e+00  0.0000000000000000e+00  0.0000000000000000e+00  0.0000000000000000e+00  0.0000000000000000e+00  0.0000000000000000e+00  0.0000000000000000e+00  0.0000000000000000e+00  0.0000000000000000e+00  0.0000000000000000e+00  0.0000000000000000e+00  0.0000000000000000e+00  0.0000000000000000e+00  0.0000000000000000e+00  0.0000000000000000e+00  0.0000000000000000e+00  0.0000000000000000e+00  0.0000000000000000e+00  0.0000000000000000e+00  0.0000000000000000e+00  0.0000000000000000e+00  0.0000000000000000e+00  0.0000000000000000e+00  0.0000000000000000e+00  0.0000000000000000e+00  0.0000000000000000e+00  0.0000000000000000e+00  0.0000000000000000e+00  0.0000000000000000e+00  0.0000000000000000e+00  0.0000000000000000e+00  0.0000000000000000e+00  0.0000000000000000e+00  0.0000000000000000e+00  0.0000000000000000e+00  0.0000000000000000e+00  0.0000000000000000e+00  0.0000000000000000e+00  0.0000000000000000e+00  0.0000000000000000e+00  0.0000000000000000e+00  0.0000000000000000e+00  0.0000000000000000e+00  0.0000000000000000e+00  0.0000000000000000e+00  0.0000000000000000e+00  0.0000000000000000e+00  0.0000000000000000e+00  0.0000000000000000e+00  0.0000000000000000e+00  0.0000000000000000e+00  0.0000000000000000e+00  0.0000000000000000e+00  0.0000000000000000e+00  0.0000000000000000e+00  0.0000000000000000e+00  0.0000000000000000e+00  0.0000000000000000e+00  0.0000000000000000e+00  0.0000000000000000e+00  0.0000000000000000e+00  0.0000000000000000e+00  0.0000000000000000e+00  0.0000000000000000e+00  0.0000000000000000e+00  0.0000000000000000e+00  0.0000000000000000e+00  0.0000000000000000e+00  0.0000000000000000e+00  0.0000000000000000e+00  0.0000000000000000e+00  0.0000000000000000e+00  0.0000000000000000e+00  0.0000000000000000e+00  0.0000000000000000e+00  0.0000000000000000e+00  0.0000000000000000e+00  0.0000000000000000e+00  0.0000000000000000e+00  0.0000000000000000e+00  0.0000000000000000e+00  0.0000000000000000e+00  0.0000000000000000e+00  0.0000000000000000e+00  0.0000000000000000e+00  0.0000000000000000e+00  0.0000000000000000e+00  0.0000000000000000e+00  0.0000000000000000e+00  0.0000000000000000e+00  0.0000000000000000e+00  0.0000000000000000e+00  0.0000000000000000e+00  3.1486960051273316e-01  3.1544738138971912e-01  3.1620486816256183e-01  3.1682953779227618e-01  3.1768807570783325e-01  3.1844171212458816e-01  3.1894394590513969e-01  3.1994862467191476e-01  3.2005684771323784e-01  3.1967908569347514e-01  3.1940863505735323e-01  3.1910811643155901e-01  3.1866054092903373e-01  3.1808024512733957e-01  3.1754339000209958e-01  3.1734246679313555e-01  3.1727300665472991e-01  3.1703527849475277e-01  3.1696922469643496e-01  3.1732490434171118e-01  3.1692178605337140e-01  3.1703217930059896e-01  3.1732863831632940e-01  3.1722708348505751e-01  3.1713665895736037e-01  3.1720826183698647e-01  3.1772971468997485e-01  3.1791656823353176e-01  3.1866482826950215e-01  3.1942522017350550e-01  3.1900438019684690e-01  3.1901358564583815e-01  3.1966568983415067e-01  3.1979753841942232e-01  3.1942523910387854e-01  3.1870030891481554e-01  3.1776872677266205e-01  3.1708169859742025e-01  3.1651124358130850e-01  3.1595159230219216e-01  3.1523232181425404e-01  3.1477247111568196e-01  3.1480411546318354e-01  3.1530329571510746e-01  3.1647894889409989e-01  3.1759950923817248e-01  3.1840352219239904e-01  3.1938870458329655e-01  3.2016438424971966e-01  3.2061311017469563e-01  3.2083405964003026e-01  3.2071831893346420e-01  3.2011068620844285e-01  3.1979340089764691e-01  3.1922709587258213e-01  3.1819937045626073e-01  3.1770744099345244e-01  3.1687542448409534e-01  3.1573974257480714e-01  3.1502131558733520e-01  3.2983065825995883e-01  3.3160622716192478e-01  3.3184932123670391e-01  3.2964803138706544e-01  3.3178888585063038e-01  3.3097076290719907e-01  3.3341491951375829e-01  3.3381936230433829e-01  3.3107995877403962e-01  3.3181239402885426e-01  3.3271417830544020e-01  3.3154116290376789e-01  3.3227416306437624e-01  3.3314967416794400e-01  3.3302723276091012e-01  3.3213141281659142e-01  3.3074971598853786e-01  3.3333007172177476e-01  3.3144723362767631e-01  3.3238469555875599e-01  3.3199637882131944e-01  3.3114677427895067e-01  3.3108267295330984e-01  3.2996813800555469e-01  3.3084777320862008e-01  3.3026411609368872e-01  3.3276469947947890e-01  3.3575925983153498e-01  3.3585617276354368e-01  3.3889732575594017e-01  3.3878694070778020e-01  3.4099465429213277e-01  3.4219201171498786e-01  3.4107469871010554e-01  3.4514314846710342e-01  3.4336807119143092e-01  3.4786948408441820e-01  3.4190957076976947e-01  3.4820185508070461e-01  3.4161428125563031e-01  3.4711043577998985e-01  3.3906588060562115e-01  3.4203342438046042e-01  3.4822059421657625e-01  3.4280184140288195e-01  3.4741277306260970e-01  3.4274458648446471e-01  3.4472944055021182e-01  3.3863504958955176e-01  3.3759162813814081e-01  3.3849476971238124e-01  3.4101950393822905e-01  3.4624962536273723e-01  3.4024199157727419e-01  3.4628517231726730e-01  3.4077639317269348e-01  3.4332904040118756e-01  3.3863852591139615e-01  3.4066324824499056e-01  3.4635766194733253e-01  3.4168399038757552e-01  3.4642426642518664e-01  3.4257638375189337e-01  3.4432531203331646e-01  3.4053569352099888e-01  3.4079414799509294e-01  3.4733711304405979e-01  3.4171977242873863e-01  3.4738105590068996e-01  3.4105836523708366e-01  3.4590404705594913e-01  3.3949710646358083e-01  3.3853525986405103e-01  3.4153742902427697e-01  3.3666353978182861e-01  3.3652909927669378e-01  3.4015490995764769e-01  3.3817007551650247e-01  3.4995199927354348e-01  3.3669689910365719e-01  3.3728451929319719e-01  3.3448604567517015e-01  3.3679863542804472e-01  3.3862745523684062e-01  3.3569813392182307e-01  3.3737195675039877e-01  3.3759540628957502e-01  3.3771422209572027e-01  3.5006242522983788e-01  3.3714234600604365e-01  3.3535427372461091e-01  3.3488339046806570e-01  3.3646250919214832e-01  3.3811667686060082e-01  3.3832886130694195e-01  3.3610252340903379e-01  3.3710030056251755e-01  3.3662265988146783e-01  3.3545479739280948e-01  3.3742169069211686e-01  3.3861625047082705e-01  3.3550549091389631e-01  3.3504705599967938e-01  3.3758521873534858e-01  3.3482170793681715e-01  3.5031003537340222e-01  3.3421859754214805e-01  3.5018334447007105e-01  3.3427024404733185e-01  3.3852290006183117e-01  3.3588893783211732e-01  3.3489544342322858e-01  3.5109886521479011e-01  3.3536461385820260e-01  3.3414648296531441e-01  3.3428421271866254e-01  3.3273409840918439e-01  3.4206962455923007e-01  3.3836363092610855e-01  3.3702924881628787e-01  3.3591325711264902e-01  3.3266985261545379e-01  3.5080871165061017e-01  3.3532776230751848e-01  3.3422540088082153e-01  3.3415860495765265e-01  3.3630335566153191e-01  3.3283081218268601e-01  3.3352987736657780e-01  3.3197833588000658e-01  3.3265323862893709e-01  3.3216576689534116e-01  3.3325452154999019e-01  3.4654932631266855e-01  3.3164388047240273e-01  3.3322133135798365e-01  3.3630105927619164e-01  3.3389941673213253e-01  3.3308838040924454e-01  3.3208141648117079e-01  3.3723152655100125e-01  3.3412451090255396e-01  3.3260008820783932e-01  3.3858447547735082e-01  3.3248817236709205e-01  3.3143776402299291e-01  3.3376736680820712e-01  3.3631302783612443e-01  3.3150405449358211e-01  3.3427323947832865e-01  3.3531752445465096e-01  3.3134387478627669e-01  3.3538731085187368e-01  3.3154393830649215e-01  3.3607279789978778e-01  3.3355582582440019e-01  3.3039565977163726e-01  3.3041317079496291e-01  3.3056454300272686e-01  3.3179729895719562e-01  3.3050348385879674e-01  3.3321298259308940e-01  3.3616064257753769e-01  3.4965892030848317e-01  3.3475179418070145e-01  3.4957999984909111e-01  3.2994502200709180e-01  3.3234516029083910e-01  3.3263802807485832e-01  3.2899373333348553e-01  3.3026815258137288e-01  3.3351465563567989e-01  3.3234381684271991e-01  3.5049077583072147e-01  3.3032459589844471e-01  3.3239379195412783e-01  3.3542978040559002e-01  3.3206907979876737e-01  3.3959944552985877e-01  3.4924578912934384e-01  3.3510817591257569e-01  3.5290786214817582e-01  3.3045650516607106e-01  3.3427385204260762e-01  3.3427828713723073e-01  3.3264824152244349e-01  3.2985957743148164e-01  3.3456333173913966e-01  3.3601007024958779e-01  3.3479162483678693e-01  3.3726873343616887e-01  3.3566718325592149e-01  3.5108597370297401e-01  3.3544677979973986e-01  3.3327661503885403e-01  3.3350008412334248e-01  3.3392172895096783e-01  3.5226249982638330e-01  3.3278963129634770e-01  3.5245494602894473e-01  3.2834462330866243e-01  3.4030109459582303e-01  3.3042955993604550e-01  3.3387208358993437e-01  3.3739566336766541e-01  3.3372973648243520e-01  3.3605941072915657e-01  3.2899011274803364e-01  3.3648669232412504e-01  3.3877995909461434e-01  3.5237542998115612e-01  3.3531901677673065e-01  3.3954477742116329e-01  3.3310659832538708e-01  3.3557040274587724e-01  3.3618027108064297e-01  3.3794546259137798e-01  3.3650907399596874e-01  3.3759779404685242e-01  3.3611092021645805e-01  3.4044392943233986e-01  3.3542638502702665e-01  3.3556776424944618e-01  3.3292090659402213e-01  3.3947704419734270e-01  3.3181368960283703e-01  3.3789177715526264e-01  3.4754106886575320e-01  3.3730709012060833e-01  3.3970196070151720e-01  3.3186801751456524e-01  3.4068760041840718e-01  3.5255030943021498e-01  3.3713428221979364e-01  3.3675035036090017e-01  3.4053921962726047e-01  3.3828104717752222e-01  3.3433999949173498e-01  3.3860697548827151e-01  3.3788340013980794e-01  3.3328564486197454e-01  3.3273856485806136e-01  3.3858834492652051e-01  2.9348567319290292e-01  2.8754419530824632e-01  2.8199904440188989e-01  2.9079015889496773e-01  2.9348866204647933e-01  2.9202212402813660e-01  2.9557437011242926e-01  2.9744487849574314e-01  2.8757735980453825e-01  2.8881458382920044e-01  2.8679054377588103e-01  2.8413642340354245e-01  2.8440435652470580e-01  2.8456870610356405e-01  1.4999586939044138e-02  2.9007477897063000e-01  1.7811691887468378e-02  1.5373883127818953e-02  2.9448750762667320e-01  1.7468409382459235e-02  1.5005564267108164e-02  1.6028800837860908e-02  1.6491768856069736e-02  2.8869694511126398e-01  1.7243047433542075e-02  2.8914760430258185e-01  2.8860741816700630e-01  2.8469751201989513e-01  2.9028902034308535e-01  2.8381521054539927e-01  2.8902879602273990e-01  3.0730021282770206e-02  2.5982245907215522e-02  2.7060406589503233e-02  2.7168569825286523e-02  2.8930253270761718e-02  3.0330359328462279e-02  3.1844254782208460e-02  3.0202614881134515e-02  3.0528142119885231e-02  3.6250510283916897e-02  3.3694636763878842e-02  3.7100652495193558e-02  5.7719169081929334e-03  5.9751846753816444e-03  6.6698032588368983e-03  7.3744430385877541e-03  6.3451240150408381e-03  5.9478287675006061e-03  6.6684293230005803e-03  6.8151674542970423e-03  2.8050162101137927e-01  2.4720975036241588e-01  2.4619070612323887e-01  2.0791664022083220e-01  2.0575541421197494e-01  2.0424687191143651e-01  1.6597747083113437e-01  1.6989040610587164e-01  1.2796448803795546e-01  1.2618212352628708e-01  1.6210675746474190e-01  1.2118898905961298e-01  1.5296594984831940e-01  1.1294635527904125e-01  1.4157178419605274e-01  1.0308974194202052e-01  1.2717016656622224e-01  9.1919411724269984e-02  1.0990927410768506e-01  7.7768256375212438e-02  9.1450807580730931e-02  1.2611919357252488e-01  1.0446476988473070e-01  1.4116224705936156e-01  1.0998957287152870e-01  7.2142083294566201e-02  1.5208410113615897e-01  1.2073198780798702e-01  1.5651764920888189e-01  1.2289507252791561e-01  1.6323835841572340e-01  9.0545643877524618e-02  1.2272301719923649e-01  1.6408862464742618e-01  1.1945594862885778e-01  1.5129283439513264e-01  1.7587455427641907e-01  1.7020741221132443e-01  6.8355628293838219e-02  1.3318213128434842e-01  1.9303675385998617e-01  1.0832176245504077e-01  1.3942925909513160e-01  9.2679491143379658e-02  2.0083712141591104e-01  1.8522044980841457e-01  1.7297620799664401e-01  1.2888740781885311e-01  1.6321290072177813e-01  1.1470548589517447e-01  1.3875695492242529e-01  9.6425474757089749e-02  1.1802614437316579e-01  1.6178160191345189e-01  1.3863784502928120e-01  9.7989400697103421e-02  1.1520762998339826e-01  7.8568651276660739e-02  9.1721906924721416e-02  1.3447730992440549e-01  1.0203355029568832e-01  1.3753215635863886e-01  1.0812990186697380e-01  1.4002600515785321e-01  1.1045306622834455e-01  1.4659198875960780e-01  1.0892331158742821e-01  1.3690574946806125e-01  8.3194041195062504e-02  1.0136629749268668e-01  1.2650348471953315e-01  9.0146689350061218e-02  1.1192456965233130e-01  7.7597916535596057e-02  1.5254119671085981e-01  1.3446008962202247e-01  1.7979171833489752e-01  1.8305119615875876e-01  1.6197659234223308e-01  1.7484903546645283e-01  1.1484506003006674e-01  1.3227482430288676e-01  6.9762691797927157e-02  5.8981067283937580e-02  1.8489805260825767e-01  9.0864693706206284e-02  1.0562111143165102e-01  1.4908097134037696e-01  1.2028118674188099e-01  1.6938220892529457e-01  1.3284455823660848e-01  1.7475457457067453e-01  1.4566371378126464e-01  1.0223677294429141e-01  1.0968791334514678e-01  1.4774953284605305e-01  1.1483374699214885e-01  1.5079988815260550e-01  1.1774542711524361e-01  1.5471581099542925e-01  1.1708659697401468e-01  1.4656378504308984e-01  1.1127056359714450e-01  1.3735288837679857e-01  1.0194288398014242e-01  1.2462711520778283e-01  9.0139533394411012e-02  1.0873235359655324e-01  8.8766400707188248e-02  7.1090339170488265e-02  6.1387832645020735e-02  1.4537143217847290e-01  1.2646470241122629e-01  9.2603010155262983e-02  1.0562323451534542e-01  1.4300543814830996e-01  1.1547106625541255e-01  7.7266102151890143e-02  1.7525646896435332e-01  1.6334295320577208e-01  1.2628754939341494e-01  4.6488510573719395e-02  1.7334999808066079e-01  1.3206382240635767e-01  3.8767354712621958e-02  1.7444635441633979e-01  1.3347208092937707e-01  1.7214676533074222e-01  1.3063535876638790e-01  1.7289893670629722e-01  1.2163590739283617e-01  1.5359323070523292e-01  1.1130500418421052e-01  1.4319855588318409e-01  9.7624455562147397e-02  1.0055546764954849e-01  1.2881397295776384e-01  1.7405221403934515e-01  1.5540086295236041e-01  1.1432627392372599e-01  1.3594922470435669e-01  9.7776219609816709e-02  1.1525375131046030e-01  1.5428758445259760e-01  1.2972286785611473e-01  9.4573555601214554e-02  1.0613495607778570e-01  7.5040260886979002e-02  8.3286016088734385e-02  1.1490175925651237e-01  8.8476994957062460e-02  1.1937427017733918e-01  9.0021136919196235e-02  1.2023618224098465e-01  5.6780090020403615e-02  1.5332278445394903e-01  1.5907362418968976e-01  1.1836574663865428e-01  1.5067177419098352e-01  1.6968339338488655e-01  1.1134099787704625e-01  1.4101841543590005e-01  8.4436725810831351e-02  6.3692574980056371e-02  1.8567960376295214e-01  1.9356091107514048e-01  1.9013595293981986e-01  1.7588122879942794e-01  1.3310010553397841e-01  1.9183298338333638e-01  6.4291505176849853e-02  2.3138852644826483e-01  2.0195634398808146e-01  5.9942862760782076e-02  1.7981545799318949e-01  5.0435062761715679e-02  2.2171870189427573e-01  2.1140793746639083e-01  7.1684765102462467e-02  1.9773520599054686e-01  2.1350959845879178e-01  5.0123843975024840e-02  2.0751409450801664e-01  6.2960682788111247e-02  1.9424920128967341e-01  1.9926031247079209e-01  1.9948652570932859e-01  8.7225445174234847e-02  7.7596524937606742e-02  6.4719397972592796e-02  8.5235823783510051e-02  9.2506095501271118e-02  2.2401166010924911e-01  2.1195114020025235e-01  2.3125980875892024e-01  2.2937815964764591e-01  2.4211570451303813e-01  2.2834195919528705e-01  2.9124405118411818e-02  3.0012627822318932e-02  2.1476197080446475e-02  9.5082883812584770e-02  2.3448092675919668e-01  2.5797914067378075e-01  1.8215140004990754e-01  7.3119766914244322e-02  6.4225350574293696e-02  1.3037398733818636e-01  1.9229971879693603e-01  2.1348547576701021e-01  9.3204727083179367e-02  2.3426183728825575e-01  2.5574670473170935e-01  2.1680977029108911e-01  2.1217522550890211e-01  2.2790054679301627e-01  2.5521663129525551e-01  2.1836641867637691e-01  2.2053827256584477e-01  2.2224491773511582e-01  2.5302878636873755e-01  2.4673125134448767e-01  7.6217498548262000e-02  5.4536705497920265e-02  2.6895398762963346e-01  8.0101551038563520e-02  2.3690040743927113e-01  2.3038911495187692e-01  1.9679522629646418e-01  2.6368468409250884e-01  4.6912779616184681e-02  2.4279337435466378e-01  3.6778033295856459e-02  3.8092921950939405e-02  2.4792354987321105e-01  3.9842539654616684e-02  4.1593721157660683e-02  3.7701454804459918e-02  6.8297155667899970e-02  7.8574733424128781e-02  6.0382066017807538e-02  2.8266482323077013e-01  2.6671063061576755e-01  2.5118376718802810e-01  2.3202255278258699e-02  2.5488133528043140e-02  4.6328128591454160e-02  3.8821831361683094e-02  4.1500614840240577e-02  5.2769659070906791e-02  3.2445397454737498e-02  4.6928438469108907e-02  2.1220248124476357e-01  2.8590863011836998e-01  2.4768977779438109e-01  2.4910981011740813e-01  2.8782851799106385e-01  2.5372867116120401e-01  2.5160969970294805e-01  2.5119981620759491e-01  2.8524554834314481e-01  2.8194620919357388e-01  2.5171602566963253e-01  2.5288996030302130e-01  2.4351334050265883e-01  2.1553779559798489e-01  1.6742818398673140e-01  2.1856030282115038e-01  2.2358316887560065e-01  2.5933960611449725e-01  1.9287347116764625e-01  2.3623123892614722e-01  2.0727849354465849e-01  2.4967523464097957e-01  5.4799440041657599e-02  2.8548792650388033e-01  2.5327185741155500e-01  2.4773400228513204e-01  2.1821952108774345e-01  2.1488990046587295e-01  1.9401644667909840e-01  3.3902277628995933e-02  2.8512998434184406e-01  2.4689442754602284e-01  1.8206701140316242e-01  2.8707992475634719e-01  1.9640521084925139e-01  2.3208845702760134e-01  2.3160184484723734e-01  2.3545046980887685e-01  2.6795866699066839e-01  2.6435557925386244e-01  2.2662159890489908e-01  2.8322574786692783e-01  2.5766244448327219e-01  2.5128399400294787e-01  2.5835562130912215e-01  2.9003731757780438e-01  1