<?xml version="1.0"?>
<VTKFile type="UnstructuredGrid"  version="0.1"  >
<UnstructuredGrid>
<Piece  NumberOfPoints="1008" NumberOfCells="1918">
<Points>
<DataArray  type="Float64"  NumberOfComponents="3"  format="ascii">0 0 0  0 1 0  1 1 0  1 0 0  1.1 -0.1 0  -0.1 -0.1 0  1.1 1.1 0  -0.1 1.1 0  0.3555815468963815 0.5108291652013836 0  0.5144636228018974 0.5148474171425096 0  0 0.9499999999997918 0  0 0.8999999999995836 0  0 0.8499999999996529 0  0 0.7999999999999998 0  0 0.7500000000003466 0  0 0.7000000000006934 0  0 0.6500000000010401 0  0 0.6000000000013869 0  0 0.5500000000017335 0  0 0.5000000000020587 0  0 0.4500000000018723 0  0 0.4000000000016644 0  0 0.3500000000014564 0  0 0.3000000000012483 0  0 0.2500000000010403 0  0 0.2000000000008322 0  0 0.1500000000006241 0  0 0.100000000000416 0  0 0.05000000000020799 0  0.04999999999989965 0 0  0.09999999999981467 0 0  0.1499999999997036 0 0  0.1999999999995579 0 0  0.2499999999994121 0 0  0.2999999999992664 0 0  0.3499999999991206 0 0  0.3999999999989749 0 0  0.4499999999988292 0 0  0.4999999999986943 0 0  0.5499999999988151 0 0  0.5999999999989468 0 0  0.6499999999990784 0 0  0.69999999999921 0 0  0.7499999999993417 0 0  0.7999999999994734 0 0  0.8499999999996051 0 0  0.8999999999997368 0 0  0.9499999999998684 0 0  1 0.04999999999989965 0  1 0.09999999999981467 0  1 0.1499999999997036 0  1 0.1999999999995579 0  1 0.2499999999994121 0  1 0.2999999999992664 0  1 0.3499999999991206 0  1 0.3999999999989749 0  1 0.4499999999988292 0  1 0.4999999999986943 0  1 0.5499999999988151 0  1 0.5999999999989468 0  1 0.6499999999990784 0  1 0.69999999999921 0  1 0.7499999999993417 0  1 0.7999999999994734 0  1 0.8499999999996051 0  1 0.8999999999997368 0  1 0.9499999999998684 0  0.9499999999997918 1 0  0.8999999999995836 1 0  0.8499999999996529 1 0  0.7999999999999998 1 0  0.7500000000003466 1 0  0.7000000000006934 1 0  0.6500000000010401 1 0  0.6000000000013869 1 0  0.5500000000017335 1 0  0.5000000000020587 1 0  0.4500000000018723 1 0  0.4000000000016644 1 0  0.3500000000014564 1 0  0.3000000000012483 1 0  0.2500000000010403 1 0  0.2000000000008322 1 0  0.1500000000006241 1 0  0.100000000000416 1 0  0.05000000000020799 1 0  -0.1 1.05000000000004 0  -0.1 1.000000000000079 0  -0.1 0.9500000000001624 0  -0.1 0.9000000000003032 0  -0.1 0.850000000000444 0  -0.1 0.8000000000005848 0  -0.1 0.7500000000007256 0  -0.1 0.7000000000008665 0  -0.1 0.6500000000010508 0  -0.1 0.6000000000012352 0  -0.1 0.5500000000014196 0  -0.1 0.500000000001539 0  -0.1 0.4500000000014195 0  -0.1 0.4000000000013 0  -0.1 0.3500000000011588 0  -0.1 0.3000000000010178 0  -0.1 0.2500000000008986 0  -0.1 0.2000000000007579 0  -0.1 0.1500000000006174 0  -0.1 0.1000000000005272 0  -0.1 0.05000000000040083 0  -0.1 2.671196597248127e-13 0  -0.1 -0.0499999999998666 0  -0.0500000000000906 -0.1 0  -1.730560139634463e-13 -0.1 0  0.04999999999975802 -0.1 0  0.09999999999961506 -0.1 0  0.1499999999994613 -0.1 0  0.199999999999302 -0.1 0  0.2499999999991446 -0.1 0  0.2999999999990088 -0.1 0  0.3499999999988296 -0.1 0  0.3999999999986936 -0.1 0  0.4499999999985143 -0.1 0  0.4999999999984002 -0.1 0  0.5499999999985247 -0.1 0  0.5999999999986493 -0.1 0  0.6499999999987955 -0.1 0  0.6999999999989417 -0.1 0  0.7499999999990659 -0.1 0  0.7999999999992116 -0.1 0  0.8499999999993573 -0.1 0  0.8999999999994526 -0.1 0  0.949999999999584 -0.1 0  0.9999999999997226 -0.1 0  1.049999999999861 -0.1 0  1.1 -0.0500000000000906 0  1.1 -1.730560139634463e-13 0  1.1 0.04999999999975802 0  1.1 0.09999999999961506 0  1.1 0.1499999999994613 0  1.1 0.199999999999302 0  1.1 0.2499999999991446 0  1.1 0.2999999999990088 0  1.1 0.3499999999988296 0  1.1 0.3999999999986936 0  1.1 0.4499999999985143 0  1.1 0.4999999999984002 0  1.1 0.5499999999985247 0  1.1 0.5999999999986493 0  1.1 0.6499999999987955 0  1.1 0.6999999999989417 0  1.1 0.7499999999990659 0  1.1 0.7999999999992116 0  1.1 0.8499999999993573 0  1.1 0.8999999999994526 0  1.1 0.949999999999584 0  1.1 0.9999999999997226 0  1.1 1.049999999999861 0  1.05000000000004 1.1 0  1.000000000000079 1.1 0  0.9500000000001624 1.1 0  0.9000000000003032 1.1 0  0.850000000000444 1.1 0  0.8000000000005848 1.1 0  0.7500000000007256 1.1 0  0.7000000000008665 1.1 0  0.6500000000010508 1.1 0  0.6000000000012352 1.1 0  0.5500000000014196 1.1 0  0.500000000001539 1.1 0  0.4500000000014195 1.1 0  0.4000000000013 1.1 0  0.3500000000011588 1.1 0  0.3000000000010178 1.1 0  0.2500000000008986 1.1 0  0.2000000000007579 1.1 0  0.1500000000006174 1.1 0  0.1000000000005272 1.1 0  0.05000000000040083 1.1 0  2.671196597248127e-13 1.1 0  -0.0499999999998666 1.1 0  0.3746160526353408 0.5475146063135492 0  0.4058963843821335 0.5716071375830951 0  0.4405583880250258 0.587999256970434 0  0.4779106880032467 0.5980419684047763 0  0.5178750181857018 0.5995922428207655 0  0.5557661697286976 0.584150781609571 0  0.5849850462354484 0.5541842311391102 0  0.5995060465100794 0.5154903411308162 0  0.5972006996645979 0.4758445658822082 0  0.5867950059714137 0.4389323900429647 0  0.5700386618641694 0.4042047829712302 0  0.5452879378599627 0.373430978016762 0  0.508011482100946 0.355780175809122 0  0.4691803940154693 0.3657134461974082 0  0.436661053726603 0.3855851612607626 0  0.4083514003962961 0.4100826673318727 0  0.3838301429680808 0.4388191365110687 0  0.3644940458620859 0.471673156931157 0  0.4244275132322479 0.4487190989858966 0  0.4796641671650404 0.4042921179298488 0  0.4357897266071269 0.5486938920266858 0  0.5438239916944134 0.4349208197554505 0  0.5604323728581274 0.502798794434554 0  0.5028054830227802 0.5630082077942177 0  0.3877260482732516 0.5088914366019343 0  0.5457063912966991 0.5458349178081234 0  0.5285616795420103 0.4740623923553148 0  0.4873331575990456 0.4836663233721224 0  0.4694354856807837 0.5240870115383204 0  0.4440661815227201 0.4833174499433315 0  0.4963340526394 0.4429914946048115 0  0.509665140960657 0.3875102385613907 0  0.4464228058087379 0.4229825824602935 0  0.4652942248572185 0.5644828394910858 0  0.4033396782154126 0.4763772323858833 0  0.4605523617832595 0.4569001506274907 0  0.4244628174511345 0.5133803915814228 0  0.5639908718036074 0.4654821952323063 0  0.5143350818519699 0.415698120393702 0  0.4059322396795885 0.5378471211502075 0  0.5726768811219619 0.5295761042810004 0  0.5305362781209101 0.5731239011510931 0  0.5375144398572635 0.4019182467081767 0  0.5811006548752519 0.5794976254572181 0  0.5742510733620804 0.3848726687038738 0  0.3849539799906823 0.574566769163648 0  0.4069674401414901 0.3909279471580586 0  0.6142600532581498 0.4956636706080017 0  0.4935659825830722 0.6141299531043155 0  0.3470108994202233 0.479707684853036 0  0.7257568443981828 0.9642074355553324 0  0.9668885267784408 0.2704370838421702 0  0.2788206286005777 0.9637383459373426 0  0.9680580378147473 0.6807341353988453 0  0.03438975371131322 0.2710887472753464 0  0.4779827312127152 0.3475843605653227 0  0.03722494285669596 0.6868883477212104 0  0.6812981477951929 0.03439583151707064 0  0.5834241462303421 0.9702100404598294 0  0.3165226105159045 0.03939596861004232 0  0.42399823864683 0.9748764383564718 0  0.9710160470574025 0.4376071279391126 0  0.03996429701850752 0.4218360185426734 0  0.531488636583881 0.02922191014189459 0  0.5075005615552883 0.338831051345051 0  0.4816441855035578 0.3276587395776109 0  0.5105934918136411 0.319075238994701 0  0.4842170586531216 0.3064402641288154 0  0.5138541780119963 0.2972207060982385 0  0.4853895870842099 0.2816156973939817 0  0.4553516859031523 0.2922834498936059 0  0.5164883233579154 0.271910064190202 0  0.4878750604301919 0.2569043294455044 0  0.338605359308005 0.5106421870949884 0  0.3266788571775612 0.4855390322809621 0  0.3188773287376831 0.5146406989837096 0  0.3055083298254565 0.4887398219053231 0  0.297103258984258 0.5186053356025655 0  0.2818019854497723 0.4929132561314147 0  0.2915706907163677 0.4617369229806317 0  0.2721374181111392 0.5228426890029499 0  0.2903226494341855 0.5497861533330437 0  0.2632172135226041 0.5540980391286481 0  0.2840866607945301 0.5818997543394759 0  0.2527863376013137 0.5858759977897294 0  0.2766081493530687 0.6143291509090706 0  0.2643631563142215 0.4673282396607429 0  0.2765120286158573 0.4335900068573387 0  0.5447012724039241 0.2895240258734801 0  0.5479845157522081 0.2620732387487287 0  0.5773086089872127 0.2834058807702859 0  0.5800764865703548 0.2525059685312863 0  0.6097453798382556 0.2755699955303701 0  0.2334317096856876 0.5576198335780703 0  0.241877353736113 0.6190553640126839 0  0.2679110199339134 0.6477108388658254 0  0.6126906457025886 0.2424856567343136 0  0.641994433722796 0.2657672731582876 0  0.2459157723106033 0.4412729145072563 0  0.2591616957600891 0.4053575311284064 0  0.1689285473453205 0.03106718753632815 0  0.8330085538404415 0.03615076408648658 0  0.03656699969914698 0.835015288541396 0  0.966782556551933 0.8327057107030696 0  0.3023632475986122 0.6433431797139988 0  0.2937175145369471 0.6760502814825943 0  0.2596960684756516 0.6809319675721669 0  0.3286946650702792 0.6731768508326771 0  0.3196151710917942 0.7041479526433599 0  0.3553438715540846 0.7000516465308431 0  0.3455207665852721 0.7318875676538469 0  0.3825748063039291 0.7270685109873138 0  0.6392408726133023 0.2998086508381455 0  0.6712022506801681 0.2897997045808856 0  0.6682908661623864 0.3244642843132956 0  0.6998298000370152 0.3144162770967256 0  0.6966868904934778 0.3502355748937192 0  0.7037311990975591 0.2790524050288218 0  0.7281460488343395 0.339066697147897 0  0.7244045197383981 0.3769235559743329 0  0.7565976261010596 0.3642882834428844 0  0.7520508913565976 0.4037553938945032 0  0.3718330686886909 0.7596013984012321 0  0.4098734404429009 0.7541278390463482 0  0.3335173491833525 0.7634074909765146 0  0.2261303117198529 0.4135451687556888 0  0.2395058707645602 0.3772688122370949 0  0.2740646943364904 0.3690487544789535 0  0.255030077382338 0.340394480486815 0  0.5822898120926173 0.2205556301017504 0  0.2183066077696851 0.3483385612203231 0  0.233870
[...]
<PointData  Scalars="v"> 
<DataArray  type="Float64"  Name="v"  format="ascii">0.0000000000000000e+00  0.0000000000000000e+00  0.0000000000000000e+00  0.0000000000000000e+00  0.0000000000000000e+00  0.0000000000000000e+00  0.0000000000000000e+00  0.0000000000000000e+00  2.5834009295534394e-03  2.6550720487431801e-03  0.0000000000000000e+00  0.0000000000000000e+00  0.0000000000000000e+00  0.0000000000000000e+00  0.0000000000000000e+00  0.0000000000000000e+00  0.0000000000000000e+00  0.0000000000000000e+00  0.0000000000000000e+00  0.0000000000000000e+00  0.0000000000000000e+00  0.0000000000000000e+00  0.0000000000000000e+00  0.0000000000000000e+00  0.0000000000000000e+00  0.0000000000000000e+00  0.0000000000000000e+00  0.0000000000000000e+00  0.0000000000000000e+00  0.0000000000000000e+00  0.0000000000000000e+00  0.0000000000000000e+00  0.0000000000000000e+00  0.0000000000000000e+00  0.0000000000000000e+00  0.0000000000000000e+00  0.0000000000000000e+00  0.0000000000000000e+00  0.0000000000000000e+00  0.0000000000000000e+00  0.0000000000000000e+00  0.0000000000000000e+00  0.0000000000000000e+00  0.0000000000000000e+00  0.0000000000000000e+00  0.0000000000000000e+00  0.0000000000000000e+00  0.0000000000000000e+00  0.0000000000000000e+00  0.0000000000000000e+00  0.0000000000000000e+00  0.0000000000000000e+00  0.0000000000000000e+00  0.0000000000000000e+00  0.0000000000000000e+00  0.0000000000000000e+00  0.0000000000000000e+00  0.0000000000000000e+00  0.0000000000000000e+00  0.0000000000000000e+00  0.0000000000000000e+00  0.0000000000000000e+00  0.0000000000000000e+00  0.0000000000000000e+00  0.0000000000000000e+00  0.0000000000000000e+00  0.0000000000000000e+00  0.0000000000000000e+00  0.0000000000000000e+00  0.0000000000000000e+00  0.0000000000000000e+00  0.0000000000000000e+00  0.0000000000000000e+00  0.0000000000000000e+00  0.0000000000000000e+00  0.0000000000000000e+00  0.0000000000000000e+00  0.0000000000000000e+00  0.0000000000000000e+00  0.0000000000000000e+00  0.0000000000000000e+00  0.0000000000000000e+00  0.0000000000000000e+00  0.0000000000000000e+00  0.0000000000000000e+00  0.0000000000000000e+00  0.0000000000000000e+00  0.0000000000000000e+00  0.0000000000000000e+00  0.0000000000000000e+00  0.0000000000000000e+00  0.0000000000000000e+00  0.0000000000000000e+00  0.0000000000000000e+00  0.0000000000000000e+00  0.0000000000000000e+00  0.0000000000000000e+00  0.0000000000000000e+00  0.0000000000000000e+00  0.0000000000000000e+00  0.0000000000000000e+00  0.0000000000000000e+00  0.0000000000000000e+00  0.0000000000000000e+00  0.0000000000000000e+00  0.0000000000000000e+00  0.0000000000000000e+00  0.0000000000000000e+00  0.0000000000000000e+00  0.0000000000000000e+00  0.0000000000000000e+00  0.0000000000000000e+00  0.0000000000000000e+00  0.0000000000000000e+00  0.0000000000000000e+00  0.0000000000000000e+00  0.0000000000000000e+00  0.0000000000000000e+00  0.0000000000000000e+00  0.0000000000000000e+00  0.0000000000000000e+00  0.0000000000000000e+00  0.0000000000000000e+00  0.0000000000000000e+00  0.0000000000000000e+00  0.0000000000000000e+00  0.0000000000000000e+00  0.0000000000000000e+00  0.0000000000000000e+00  0.0000000000000000e+00  0.0000000000000000e+00  0.0000000000000000e+00  0.0000000000000000e+00  0.0000000000000000e+00  0.0000000000000000e+00  0.0000000000000000e+00  0.0000000000000000e+00  0.0000000000000000e+00  0.0000000000000000e+00  0.0000000000000000e+00  0.0000000000000000e+00  0.0000000000000000e+00  0.0000000000000000e+00  0.0000000000000000e+00  0.0000000000000000e+00  0.0000000000000000e+00  0.0000000000000000e+00  0.0000000000000000e+00  0.0000000000000000e+00  0.0000000000000000e+00  0.0000000000000000e+00  0.0000000000000000e+00  0.0000000000000000e+00  0.0000000000000000e+00  0.0000000000000000e+00  0.0000000000000000e+00  0.0000000000000000e+00  0.0000000000000000e+00  0.0000000000000000e+00  0.0000000000000000e+00  0.0000000000000000e+00  0.0000000000000000e+00  0.0000000000000000e+00  0.0000000000000000e+00  0.0000000000000000e+00  0.0000000000000000e+00  0.0000000000000000e+00  0.0000000000000000e+00  0.0000000000000000e+00  0.0000000000000000e+00  0.0000000000000000e+00  0.0000000000000000e+00  0.0000000000000000e+00  0.0000000000000000e+00  0.0000000000000000e+00  0.0000000000000000e+00  0.0000000000000000e+00  0.0000000000000000e+00  2.6033984316286415e-03  2.6228450709172495e-03  2.6340979435126445e-03  2.6383235371007160e-03  2.6388009072263151e-03  2.6412474651249531e-03  2.6412266386045286e-03  2.6404423371960226e-03  2.6389437784629976e-03  2.6339866461927604e-03  2.6224606665871315e-03  2.6063012955794894e-03  2.5873544907356960e-03  2.5990880592318068e-03  2.6082886062746939e-03  2.6113065128011122e-03  2.6068804930708426e-03  2.5959783557507406e-03  2.6375735815938385e-03  2.6363882458219218e-03  2.6433279516279739e-03  2.6441271794034348e-03  2.6535296396849317e-03  2.6531760833264501e-03  2.6306535852049042e-03  2.6540890046639338e-03  2.6517810782016615e-03  2.6502882001865373e-03  2.6506692247058681e-03  2.6431415788080118e-03  2.6446988444676104e-03  2.6325406494759184e-03  2.6361771583533430e-03  2.6481411359274391e-03  2.6346989019316786e-03  2.6434952291499495e-03  2.6406682071994344e-03  2.6487264107206334e-03  2.6387055258824919e-03  2.6353727069637354e-03  2.6502046843443648e-03  2.6497394151696295e-03  2.6335832840715307e-03  2.6284068429710443e-03  2.5952654262249826e-03  2.5939631704419747e-03  2.5868894029155019e-03  2.6260800640447099e-03  2.6244483401825524e-03  2.5581028402398885e-03  2.6302376617113785e-04  2.3367394531221210e-04  2.6733049880926698e-04  2.6620103678159218e-04  2.3841029213544796e-04  2.5604893058582567e-03  2.8334477794339502e-04  2.7085749829162806e-04  3.0715176339908578e-04  2.9935107560112047e-04  2.5011168651325051e-04  2.7710888801533258e-04  3.4850181282424566e-04  2.7949056710867406e-04  2.5361186106741995e-03  2.4859151239011957e-03  2.4484830307741011e-03  2.3775524724582208e-03  2.3269588029973015e-03  2.2310434622845564e-03  2.2667726837496101e-03  2.1710077808290988e-03  2.0700642642896266e-03  2.5322926614016355e-03  2.4822149146229472e-03  2.4437529909468159e-03  2.3736968721762503e-03  2.3218524616284821e-03  2.2330765713290492e-03  2.2731173335782291e-03  2.1643814723284159e-03  2.2486355814667104e-03  2.0701985885102276e-03  2.1516797470409270e-03  1.9451715350167363e-03  2.0295070046969263e-03  2.1083525549043278e-03  2.1426673228509257e-03  2.2566857686981022e-03  2.0821315105546538e-03  2.1702152263624154e-03  1.9729356310273856e-03  2.0525683068840866e-03  1.8532455253176434e-03  1.7998737840356823e-03  1.8768994681527390e-03  1.8382416740104124e-03  1.9011870370693250e-03  1.9544377672350579e-03  1.9755482002590695e-03  1.4662240784547430e-04  1.6329248814526520e-04  1.6815544389874864e-04  1.6070621467386770e-04  2.0814786566132871e-03  1.9138619350717409e-03  1.7052439180867689e-03  2.0877187159511947e-03  1.9076849482900259e-03  2.0618338147337760e-03  1.8626853997710524e-03  2.0026846888202697e-03  2.0972305075065553e-03  1.9306663057118340e-03  2.1033560110406248e-03  1.9218665148510014e-03  2.0742794363491648e-03  1.7373772233414497e-03  1.8721702964247383e-03  2.0105070670619779e-03  1.7865945261066444e-03  1.9090076133113215e-03  1.7835965925445099e-03  1.9054173155270688e-03  1.6388720268405096e-03  1.7664419344753219e-03  1.7762316926632799e-03  1.9686650501314199e-03  1.7595205211001219e-03  1.7474119620233086e-03  1.5552960162215398e-03  1.5309640857012368e-03  1.7102983978444170e-03  1.4691772992127487e-03  1.6223374529845797e-03  1.3679999260344541e-03  1.4891584543317521e-03  1.5983055869346705e-03  1.2191324770736180e-03  2.8676470002566955e-04  1.6654356203251205e-03  1.7695334741684092e-03  2.0018546366253422e-03  1.8461833794724402e-03  2.0643943186916952e-03  1.8958687512785277e-03  2.0972495912270372e-03  1.9182855622091853e-03  2.1036232958619849e-03  1.9174334436795441e-03  2.0848246137157586e-03  1.8835617849298949e-03  2.0357387098834541e-03  1.8171199772667997e-03  1.9506721801752177e-03  1.7183258440080498e-03  1.8286862254588592e-03  1.7077853686901544e-03  1.5857764854691479e-03  1.6671326981117594e-03  1.8972065529395126e-03  1.7058255867684294e-03  1.5371270517539584e-03  1.4681730242961256e-03  1.3304799702836651e-03  1.9243545461761352e-03  1.7085877834997105e-03  1.2092830928057531e-03  1.6662096556165180e-03  1.4798127751858975e-03  1.0709506867863225e-03  2.1165769772611975e-03  2.0991244608973836e-03  2.8816317938816320e-04  1.6016156920264726e-04  1.6101713038891248e-04  1.1148960853201886e-03  1.8722236728438852e-04  3.1621860048688971e-04  1.5968427400177537e-03  2.1977154242389359e-03  1.4586652848220891e-03  1.3227003991557967e-03  1.3195612634705745e-03  1.6346304683191826e-04  1.4942478427195272e-03  2.1122494361532607e-03  1.6484197350426998e-03  9.6922332892690314e-04  1.7391445589230179e-03  1.8634693101047574e-03  1.3386574555728109e-03  2.2112760856828153e-03  1.3981729373128973e-03  1.2706105470908268e-03  2.3114987681778203e-03  1.7677071451787060e-03  1.4953096070911230e-03  1.3996265450547784e-03  2.2495261015717063e-03  2.2177257372952234e-03  2.2613104192170082e-03  2.2629693391174282e-03  9.5125799355523033e-04  1.0564287982419308e-03  1.2246754482755473e-03  8.2209393197607821e-04  8.6786053318115442e-04  9.7729768655401418e-04  9.0917297685747596e-04  1.0947495361241760e-03  7.3533271860321068e-04  2.2559675229486174e-03  1.2133294209304684e-03  1.3609986011855785e-03  1.1834356300762675e-03  1.1153566737841798e-03  2.0795507129326707e-03  7.9712168461569587e-04  2.3901475305623259e-03  2.3902500771629379e-03  9.9479085264808664e-04  1.1363935650967221e-03  8.0336878223665094e-04  1.0578824685025256e-03  1.5986926836477672e-03  1.3027920114272167e-03  2.3185515854941812e-03  1.4345916765203697e-03  1.1698570074563273e-03  1.2571363378301107e-03  9.9676427054503172e-04  1.0641496611814513e-03  8.2780943020261636e-04  8.6048770901023741e-04  7.3173852507557992e-04  8.8120875322871841e-04  2.5073859652615061e-03  2.3771656644968899e-03  8.2081421710922167e-04  8.7765482034353806e-04  1.0884155793031319e-03  8.6198125732813021e-04  6.5717412880206304e-04  6.4337889143630336e-04  2.5078025123794266e-03  9.2979942224126542e-04  8.0274410600566668e-04  6.7539104792451116e-04  5.8882999942498984e-04  2.6205907673656176e-03  1.2393702252757129e-03  9.8287153677544740e-04  4.6641542543863818e-04  2.6197154729858756e-03  2.5904795094090030e-03  2.5741826568155221e-03  8.0430657354777131e-04  1.0601883255916180e-03  1.1972885699561020e-03  9.0952559525835411e-04  1.4936241627573669e-03  1.3200588196458918e-03  1.0114414577921842e-03  1.1265422854274563e-03  1.4221814134369247e-03  1.2213787487840256e-03  1.4975899184375726e-03  2.1951605500279826e-03  1.2954903429883283e-03  1.0205971682743838e-03  2.5261135722138128e-03  2.5920856841669393e-03  2.5851155167180731e-03  2.5898742752994428e-03  5.7298630182536141e-04  5.2092468514160683e-04  6.6286122199567924e-05  8.3518485948755542e-05  8.3547999635779025e-05  7.4762502015699275e-05  5.7052890807337772e-04  6.3468825000848950e-04  6.9672443535178134e-04  1.6769632810939882e-03  2.5656893988321530e-03  2.5306945621593074e-03  2.5278025383653536e-03  2.4643435249035034e-03  2.5791702144395928e-03  2.5072395632746991e-03  1.6922785246627644e-03  1.7443255177238485e-03  1.1319194324839873e-03  9.0429189034527710e-04  1.1731839473474704e-03  8.9404010316392253e-04  1.1917171567973003e-03  9.0653967098985649e-04  1.1768156174228896e-03  6.0699640869923055e-04  6.0178964347087579e-04  1.3928915867967332e-03  1.0989081865984799e-03  1.0116359521971103e-03  5.6039860254041452e-04  1.2904637051631362e-03  1.0111797154159735e-03  1.2704700306514095e-03  9.4210751572095159e-04  1.1585903869797587e-03  8.6380797289351235e-04  1.0695440682334429e-03  1.3558215596573557e-03  1.2525925473280959e-03  9.4234038609469837e-04  1.1238878110422016e-03  8.1757667483768712e-04  9.9340525703465565e-04  1.2717288017202763e-03  1.1092064047263600e-03  8.0534225679326137e-04  9.4444742447388058e-04  6.8324189054375626e-04  7.7492906277532535e-04  1.0244342924398435e-03  8.3021096600340808e-04  1.0552206559149588e-03  8.3842851487449688e-04  6.5097179135927918e-04  1.0363731971216959e-03  7.9569472402048604e-04  9.6829695186848150e-04  1.2759041883688470e-03  5.2909908501376924e-04  7.0761928376512255e-04  8.5869724704153735e-04  5.6052373698191305e-04  1.8578886249588603e-03  2.5007697127399199e-03  2.5470125547761013e-03  8.9127338436517265e-04  1.1471662937676849e-03  8.4432259423878741e-04  2.3406116558315634e-03  2.5070893722458662e-03  2.5035599191260615e-03  8.8140973250772352e-04  7.9411621949366151e-04  8.5130224707328985e-04  1.9265456932706653e-03  1.9545848870411646e-03  5.0709945931608745e-04  1.4354440011402950e-03  2.5526102569296662e-03  4.4376179739153646e-04  3.1052513807599858e-04  5.7948944792477798e-04  1.1325487011696962e-03  2.4691954516658779e-03  2.5053244364169180e-03  1.3812463118322365e-03  4.6563268975220008e-04  3.8592381439774443e-04  2.4000736553946691e-03  2.4077093018124479e-03  1.0104643904050685e-03  7.2180956494033953e-04  3.9275261447322324e-04  3.3377110271804903e-04  3.9921039977344877e-04  1.0994623230935854e-03  1.1023092102187199e-03  8.1529597040239142e-04  1.0614368521244914e-03  1.3009584575539256e-03  4.6896722016099445e-04  5.5498652881706093e-04  9.9684727701516876e-04  7.4303036271237976e-04  7.0584391425067413e-04  1.2253406032084132e-03  4.7277052305990644e-04  6.1301645415691441e-04  5.3154197123048206e-04  1.7706972340082621e-03  7.6113027209915966e-04  5.7728704902966803e-04  1.4998146676192586e-03  2.4323035112240165e-03  6.9095967872432392e-04  3.6776695202856661e-04  8.0017804509848346e-04  7.0755757004848578e-04  2.4493359369064725e-03  2.4466682394095759e-03  2.3295617796024732e-03  5.2063896497468807e-04  1.0575822737050461e-03  8.9752509124600764e-04  5.8757769596105738e-04  2.6115405820708172e-03  2.5636877335092731e-03  2.5770214581584722e-03  2.5052032131971129e-03  2.5130250969054202e-03  2.5339512706814469e-03  2.5685268194046117e-03  2.4886722266754609e-03  2.4156662453404497e-03  2.5487402203743866e-03  2.4630631981413368e-03  1.4661441144309972e-03  1.5697511719817820e-03  1.6162013626002569e-03  2.2289510147972848e-04  1.7899354901767424e-04  4.3540403514928238e-04  2.4595145854264286e-03  2.7222415491211059e-04  2.1625267765957771e-04  5.8960218175878808e-04  2.5735348715045445e-03  2.5062823981707319e-03  2.5566266693649782e-03  2.4817938196842679e-03  2.4085610955557175e-03  2.3789889968081068e-03  2.4417481607307075e-03  2.3196844890535028e-03  2.3716887306664478e-03  2.2238349948817179e-03  2.2802719241470691e-03  2.4803058799871161e-03  2.1705988077954028e-03  2.2731570710321767e-03  1.9293279899866473e-03  2.6089800954412559e-03  2.4799628437947360e-03  2.6188586652968106e-03  4.1745392972890110e-04  2.8840496368940581e-04  3.6056731681790400e-04  2.7977289655685395e-04  2.5756449259107094e-03  2.4245664879685436e-03  1.5419386964236339e-03  7.2983067065982563e-04  2.2372350856384110e-03  2.0473474429363908e-03  1.4165706833622462e-03  2.1164418570110673e-03  2.1499908509039676e-03  2.2451096488763120e-03  2.2414760188998826e-03  2.3922390645974745e-03  2.3843509263078736e-03  1.6099701459750973e-03  1.7618377104725233e-03  1.6332989730866076e-03  4.2693975891836612e-04  6.4706625452397770e-04  1.4395141245059084e-03  3.5448238527718422e-04  4.7045463562433667e-04  2.2583455664170284e-03  2.1779493515057440e-03  2.2986110023342702e-03  2.2012445578975387e-03  1.8714605299634231e-03  3.2305917770559774e-04  2.7236114493804680e-04  5.2368107751751272e-04  2.9068098888080735e-04  5.8655121452444578e-04  2.5343450986084299e-03  1.2235421879216821e-03  1.2683713427784171e-03  1.5101200478822865e-03  1.4681391048273816e-03  2.0027148394624501e-03  2.0852169421044725e-03  2.2759912148815364e-03  2.9786118034242818e-04  2.2324684846467143e-03  2.0636925759665337e-04  3.7536045599781626e-04  2.3467682938906973e-03  1.2081965068753092e-03  2.0182781891984859e-04  4.2485011893362781e-04  1.9200214469099407e-03  2.0851234428608258e-04  2.0601890209146799e-04  2.1471345404150861e-03  4.4414256417995559e-04  1.2994951474279758e-03  3.1117202157058372e-04  2.9566066621583711e-04  6.0055707259002529e-04  2.7826884804185947e-04  2.6389532865877131e-04  5.0046436586849202e-04  5.2819545823233865e-04  6.8757982200542001e-04  2.5654883331273194e-03  2.8940376006408213e-04  5.4761949640516052e-04  4.7643162268861278e-04  2.3924383953485148e-04  4.2911747199520065e-04  2.0556669585294736e-04  1.9470482068095496e-03  1.6877452679475310e-03  1.2577508995374430e-04  1.9766484029527632e-04  3.4366788199288533e-04  2.2985070815622651e-04  3.9625860053278569e-04  1.1350902696011612e-04  5.9008119669564079e-04  2.9958460863392119e-04  5.9160712865714696e-04  3.0895961926356646e-04  5.4228133738850855e-04  1.1915084868948805e-04  2.5126161460080052e-03  4.8381558933669648e-04  2.6221726176559150e-03  1.3163148481309854e-03  2.4452180973262125e-03  1.1458396116448985e-04  2.3908243533787600e-03  2.2312577095704486e-04  2.3932389552050485e-03  1.2059360666056379e-04  2.8948615059389612e-04  2.6035803726974405e-03  1.2521467102887253e-04  2.2877468086403762e-03  2.7387239191123191e-04  1.3933988068568456e-03  2.8640363391892784e-04  8.1768964501476829e-04  4.3300408227609741e-04  1.4235707593272468e-03  1.1547613814310729e-03  9.0054064446095630e-04  1.5297172096222394e-03  1.4468522664899560e-03  2.4646309738315495e-03  1.6904116377434470e-03  1.4616610042075171e-03  2.3180649658341794e-03  1.9799946857777936e-03  2.5548641212999584e-03  1.9087171108026141e-03  6.4611846022699410e-04  1.6483476947618575e-03  1.2157234734298354e-03  2.0577567164771498e-04  1.8738185104031485e-03  1.2304682632466543e-03  2.2241012095241897e-03  1.5531208245381837e-03  7.0794137030455787e-04  2.1451651918407604e-03  2.1225371347533069e-03  8.3926447373328615e-04  1.3906935871124070e-03  1.6567729483690603e-03  5.7023951098456320e-04  1.2914292489820151e-03  1.6380032759445134e-03  1.2321951096375997e-03  1.4791356523723824e-03  1.3944301413237618e-03  3.4113439268702790e-04  6.0027963048216225e-04  6.2579675199779950e-04  6.3542666238207575e-04  9.4516254454270318e-04  4.6728207176519141e-04  1.4697451561653510e-03  2.3601825002001965e-03  1.5110440874519318e-03  1.9134041351031913e-03  2.4529174741617346e-04  1.5798064543473920e-03  9.2282745428378461e-04  1.6874986524406583e-03  1.9716376869382715e-03  7.8623164739904125e-04  8.4533055796824963e-05  1.7526509161778980e-03  1.0536383309990604e-03  1.7292290142924655e-03  8.9040188944335228e-04  8.7228203978976802e-05  2.5274652484150277e-03  1.5454785462414439e-03  6.1948329673681718e-04  1.6819337251725824e-03  7.3438422119072549e-05  1.7236743456387885e-03  1.3352747308140779e-03  1.5292439265163385e-03  2.4881088829273113e-03  2.8549879654191080e-04  4.8151264263710279e-04  6.0781298765009094e-04  1.1571883091629942e-04  2.4346734082473722e-03  1.4183818493913628e-03  2.0894145484349723e-03  1.7288565073095398e-03  2.6919170244896651e-04  1.2388906290040399e-03  1.3936738777539344e-03  2.3897663378699197e-03  1.7162805305814641e-03  5.5819394608394015e-04  4.2693200414259500e-04  2.4064403268797920e-03  1.7851891478909730e-04  2.4283776714655210e-03  1.1248469319635466e-04  1.7023910976739589e-03  2.4104570178241336e-03  3.4852974114887760e-04  4.5762631317500355e-04  1.0468265972920169e-03  2.5358464459553985e-03  3.5564086156005908e-04  1.3220749304890108e-03  5.7309483178523001e-04  2.7669275478563703e-04  7.2637465134771926e-04  6.3237381454734460e-04  1.5222423502649133e-03  2.6766854120242070e-04  2.6209564304681917e-03  2.1067784742327591e-03  7.8069122063172656e-04  2.5054912923309644e-03  1.8773454416841964e-04  9.9009533127469417e-04  7.3016718042959736e-04  2.5514424296756106e-04  2.2418345076055100e-03  5.3246723225622750e-04  1.1654209161616196e-03  2