<?xml version="1.0"?>
<VTKFile type="UnstructuredGrid"  version="0.1"  >
<UnstructuredGrid>
<Piece  NumberOfPoints="1008" NumberOfCells="1918">
<Points>
<DataArray  type="Float64"  NumberOfComponents="3"  format="ascii">0 0 0  0 1 0  1 1 0  1 0 0  1.1 -0.1 0  -0.1 -0.1 0  1.1 1.1 0  -0.1 1.1 0  0.3726478858624539 0.5067360364142588 0  0.5090142727335624 0.5092342010986425 0  0 0.9499999999997918 0  0 0.8999999999995836 0  0 0.8499999999996529 0  0 0.7999999999999998 0  0 0.7500000000003466 0  0 0.7000000000006934 0  0 0.6500000000010401 0  0 0.6000000000013869 0  0 0.5500000000017335 0  0 0.5000000000020587 0  0 0.4500000000018723 0  0 0.4000000000016644 0  0 0.3500000000014564 0  0 0.3000000000012483 0  0 0.2500000000010403 0  0 0.2000000000008322 0  0 0.1500000000006241 0  0 0.100000000000416 0  0 0.05000000000020799 0  0.04999999999989965 0 0  0.09999999999981467 0 0  0.1499999999997036 0 0  0.1999999999995579 0 0  0.2499999999994121 0 0  0.2999999999992664 0 0  0.3499999999991206 0 0  0.3999999999989749 0 0  0.4499999999988292 0 0  0.4999999999986943 0 0  0.5499999999988151 0 0  0.5999999999989468 0 0  0.6499999999990784 0 0  0.69999999999921 0 0  0.7499999999993417 0 0  0.7999999999994734 0 0  0.8499999999996051 0 0  0.8999999999997368 0 0  0.9499999999998684 0 0  1 0.04999999999989965 0  1 0.09999999999981467 0  1 0.1499999999997036 0  1 0.1999999999995579 0  1 0.2499999999994121 0  1 0.2999999999992664 0  1 0.3499999999991206 0  1 0.3999999999989749 0  1 0.4499999999988292 0  1 0.4999999999986943 0  1 0.5499999999988151 0  1 0.5999999999989468 0  1 0.6499999999990784 0  1 0.69999999999921 0  1 0.7499999999993417 0  1 0.7999999999994734 0  1 0.8499999999996051 0  1 0.8999999999997368 0  1 0.9499999999998684 0  0.9499999999997918 1 0  0.8999999999995836 1 0  0.8499999999996529 1 0  0.7999999999999998 1 0  0.7500000000003466 1 0  0.7000000000006934 1 0  0.6500000000010401 1 0  0.6000000000013869 1 0  0.5500000000017335 1 0  0.5000000000020587 1 0  0.4500000000018723 1 0  0.4000000000016644 1 0  0.3500000000014564 1 0  0.3000000000012483 1 0  0.2500000000010403 1 0  0.2000000000008322 1 0  0.1500000000006241 1 0  0.100000000000416 1 0  0.05000000000020799 1 0  -0.1 1.05000000000004 0  -0.1 1.000000000000079 0  -0.1 0.9500000000001624 0  -0.1 0.9000000000003032 0  -0.1 0.850000000000444 0  -0.1 0.8000000000005848 0  -0.1 0.7500000000007256 0  -0.1 0.7000000000008665 0  -0.1 0.6500000000010508 0  -0.1 0.6000000000012352 0  -0.1 0.5500000000014196 0  -0.1 0.500000000001539 0  -0.1 0.4500000000014195 0  -0.1 0.4000000000013 0  -0.1 0.3500000000011588 0  -0.1 0.3000000000010178 0  -0.1 0.2500000000008986 0  -0.1 0.2000000000007579 0  -0.1 0.1500000000006174 0  -0.1 0.1000000000005272 0  -0.1 0.05000000000040083 0  -0.1 2.671196597248127e-13 0  -0.1 -0.0499999999998666 0  -0.0500000000000906 -0.1 0  -1.730560139634463e-13 -0.1 0  0.04999999999975802 -0.1 0  0.09999999999961506 -0.1 0  0.1499999999994613 -0.1 0  0.199999999999302 -0.1 0  0.2499999999991446 -0.1 0  0.2999999999990088 -0.1 0  0.3499999999988296 -0.1 0  0.3999999999986936 -0.1 0  0.4499999999985143 -0.1 0  0.4999999999984002 -0.1 0  0.5499999999985247 -0.1 0  0.5999999999986493 -0.1 0  0.6499999999987955 -0.1 0  0.6999999999989417 -0.1 0  0.7499999999990659 -0.1 0  0.7999999999992116 -0.1 0  0.8499999999993573 -0.1 0  0.8999999999994526 -0.1 0  0.949999999999584 -0.1 0  0.9999999999997226 -0.1 0  1.049999999999861 -0.1 0  1.1 -0.0500000000000906 0  1.1 -1.730560139634463e-13 0  1.1 0.04999999999975802 0  1.1 0.09999999999961506 0  1.1 0.1499999999994613 0  1.1 0.199999999999302 0  1.1 0.2499999999991446 0  1.1 0.2999999999990088 0  1.1 0.3499999999988296 0  1.1 0.3999999999986936 0  1.1 0.4499999999985143 0  1.1 0.4999999999984002 0  1.1 0.5499999999985247 0  1.1 0.5999999999986493 0  1.1 0.6499999999987955 0  1.1 0.6999999999989417 0  1.1 0.7499999999990659 0  1.1 0.7999999999992116 0  1.1 0.8499999999993573 0  1.1 0.8999999999994526 0  1.1 0.949999999999584 0  1.1 0.9999999999997226 0  1.1 1.049999999999861 0  1.05000000000004 1.1 0  1.000000000000079 1.1 0  0.9500000000001624 1.1 0  0.9000000000003032 1.1 0  0.850000000000444 1.1 0  0.8000000000005848 1.1 0  0.7500000000007256 1.1 0  0.7000000000008665 1.1 0  0.6500000000010508 1.1 0  0.6000000000012352 1.1 0  0.5500000000014196 1.1 0  0.500000000001539 1.1 0  0.4500000000014195 1.1 0  0.4000000000013 1.1 0  0.3500000000011588 1.1 0  0.3000000000010178 1.1 0  0.2500000000008986 1.1 0  0.2000000000007579 1.1 0  0.1500000000006174 1.1 0  0.1000000000005272 1.1 0  0.05000000000040083 1.1 0  2.671196597248127e-13 1.1 0  -0.0499999999998666 1.1 0  0.3893807494957491 0.5368218379145206 0  0.4166112211007194 0.5564448537443987 0  0.4465698522225141 0.5700257496627378 0  0.4785259356833725 0.5787916470498703 0  0.5123843432801971 0.5807697340312115 0  0.5443603824190105 0.568013420146087 0  0.5688434644317418 0.5429367653871041 0  0.5807864690961955 0.510334573243324 0  0.5781580332812983 0.4766947064089186 0  0.5691223976920984 0.4450362297572984 0  0.5552498222140684 0.4150471925704189 0  0.5351179082892197 0.3881917316122415 0  0.5044559440385242 0.372773454751537 0  0.4720632632360203 0.3825661642436494 0  0.4446469505526289 0.4004423421876952 0  0.4204054542145758 0.4218406017145848 0  0.3990093526112386 0.4463858416949832 0  0.3815248944727177 0.474051482130144 0  0.433236433662015 0.4540479943631209 0  0.4803132416894843 0.4154494799883173 0  0.4421741872458683 0.5374484331656554 0  0.5334922611473988 0.4412925373321862 0  0.5476835848802357 0.4992910727885758 0  0.4994017655779043 0.5497310336891271 0  0.4007618585602556 0.5047217185194893 0  0.5355891351122635 0.5355930831102653 0  0.5207732937059764 0.4747207081541606 0  0.486102498582519 0.4828730998625794 0  0.4708748656849036 0.5169037623368781 0  0.4494273842033957 0.4828577495121784 0  0.4938650428923156 0.4482881869512124 0  0.5054657654400115 0.400458234176729 0  0.4522269469080121 0.4319536043965866 0  0.4675035916726183 0.5506573495142368 0  0.414760568388201 0.4774952982160589 0  0.4636709771467624 0.4604770453790513 0  0.4324473037574633 0.5081081702054213 0  0.5503504772302719 0.4675649805212919 0  0.5090868305250578 0.4247950911704141 0  0.4164609604021891 0.5285439956894447 0  0.5582396736669677 0.5220373619014058 0  0.52293055630618 0.5585105135263134 0  0.5283989650182416 0.4128617244706985 0  0.5684723080192956 0.5669720356384682 0  0.5620170023002179 0.3958476091727645 0  0.3961243860482518 0.5621043001871614 0  0.4168887327593588 0.4026176450409778 0  0.5969061346354642 0.493559494647666 0  0.4918546237610487 0.5965666838414955 0  0.362541389058996 0.4800370407073201 0  0.7225720694194013 0.9599200130247202 0  0.9627127807776747 0.2723824285852178 0  0.2808884470154154 0.9591974491001354 0  0.9637880600198392 0.6779657372861712 0  0.03783469568515054 0.2732881212392226 0  0.4786163180149236 0.3629594396744466 0  0.04102097456350132 0.6836493012688528 0  0.6782580894943545 0.03797226985517032 0  0.5816109261103256 0.965306733019209 0  0.3185305449264357 0.04331050693692589 0  0.424373435298564 0.9703646043440806 0  0.9663370940045132 0.4377778003015416 0  0.04451536852661494 0.4223982966700304 0  0.5303450506411302 0.03329564637499877 0  0.5044839115865871 0.3536744670073786 0  0.4814119029042524 0.3414845706952445 0  0.5076982857155423 0.3322869594848321 0  0.4835871718640292 0.3189812278949637 0  0.5111038729782756 0.3091745711109807 0  0.4846142262388212 0.2930176811093258 0  0.4565323854719133 0.303709305534053 0  0.513940707407046 0.2828109129506 0  0.4869560924022431 0.2674374525824197 0  0.3535416142236781 0.5071657189166193 0  0.3406298855524883 0.4848207587090646 0  0.332160278948732 0.5112917315369634 0  0.3181711187727632 0.4876611678482657 0  0.3091359948252829 0.5154246579581392 0  0.2933707072563181 0.4915655963685644 0  0.3032329456461093 0.4624224603410678 0  0.2831139886254196 0.5198318452113723 0  0.3012799766629109 0.5449268153852154 0  0.2733139228462152 0.5497420532056603 0  0.2938165528486532 0.5758384630916955 0  0.2618801405580928 0.5805929958690486 0  0.2851288359823682 0.6075597153347032 0  0.2751316517176344 0.467391508068456 0  0.287039311191579 0.4355425255380188 0  0.5402532588037661 0.3004437458407775 0  0.544044719182639 0.2721361180473303 0  0.5715877006270185 0.2931385059027416 0  0.575121151087848 0.2616039057001431 0  0.6032722119554665 0.2840774041962251 0  0.242775686016389 0.5537174366973604 0  0.2499679341210489 0.6131389141950576 0  0.2753233214050323 0.6405598482181148 0  0.6070472391153637 0.2505969811784226 0  0.6351470043964922 0.2731912212500037 0  0.2557943412990892 0.4423813124930497 0  0.268590434005199 0.4081465818371153 0  0.1714466152770259 0.03389257277787048 0  0.8295450171650838 0.0389631747581267 0  0.0395647089058879 0.8314848675090163 0  0.9632198449509906 0.8293993272069794 0  0.309867358184818 0.6351560170033028 0  0.3001868195184785 0.6678396500599671 0  0.2661931372411645 0.673599014474966 0  0.3348561881457874 0.6638444615636671 0  0.3249537101956003 0.695126031654523 0  0.3600729536961908 0.6899970352755352 0  0.3496540152932837 0.7223760151101261 0  0.385845510392856 0.7166696204186574 0  0.6313649018158611 0.3073156727295203 0  0.6633026076778165 0.2962812545290138 0  0.6592999184670073 0.3306874281317762 0  0.6911285250372142 0.3197952265757406 0  0.6869411951686296 0.3550244228735959 0  0.6959405888329095 0.2847298505935377 0  0.7189349400045383 0.3432762425538937 0  0.7142679272777178 0.3802765450257983 0  0.7471532010983193 0.3673478653964861 0  0.7418541665637848 0.4057871588928613 0  0.3747866327226216 0.7498816895921697 0  0.4118116093217304 0.743702699302446 0  0.3372593141442449 0.7544409059297297 0  0.2351039079215326 0.4154491860690379 0  0.2479498836198116 0.3805527998110174 0  0.2826885749981269 0.3734201200225215 0  0.2627025964543883 0.3449424761559475 0  0.5779229358159679 0.2290740991151819 0  0.2258797235914158 0.3519239725193666 0  0.240740915
[...]
<PointData  Scalars="v"> 
<DataArray  type="Float64"  Name="v"  format="ascii">0.0000000000000000e+00  0.0000000000000000e+00  0.0000000000000000e+00  0.0000000000000000e+00  0.0000000000000000e+00  0.0000000000000000e+00  0.0000000000000000e+00  0.0000000000000000e+00  2.8831057225302808e-03  2.9465034429472592e-03  0.0000000000000000e+00  0.0000000000000000e+00  0.0000000000000000e+00  0.0000000000000000e+00  0.0000000000000000e+00  0.0000000000000000e+00  0.0000000000000000e+00  0.0000000000000000e+00  0.0000000000000000e+00  0.0000000000000000e+00  0.0000000000000000e+00  0.0000000000000000e+00  0.0000000000000000e+00  0.0000000000000000e+00  0.0000000000000000e+00  0.0000000000000000e+00  0.0000000000000000e+00  0.0000000000000000e+00  0.0000000000000000e+00  0.0000000000000000e+00  0.0000000000000000e+00  0.0000000000000000e+00  0.0000000000000000e+00  0.0000000000000000e+00  0.0000000000000000e+00  0.0000000000000000e+00  0.0000000000000000e+00  0.0000000000000000e+00  0.0000000000000000e+00  0.0000000000000000e+00  0.0000000000000000e+00  0.0000000000000000e+00  0.0000000000000000e+00  0.0000000000000000e+00  0.0000000000000000e+00  0.0000000000000000e+00  0.0000000000000000e+00  0.0000000000000000e+00  0.0000000000000000e+00  0.0000000000000000e+00  0.0000000000000000e+00  0.0000000000000000e+00  0.0000000000000000e+00  0.0000000000000000e+00  0.0000000000000000e+00  0.0000000000000000e+00  0.0000000000000000e+00  0.0000000000000000e+00  0.0000000000000000e+00  0.0000000000000000e+00  0.0000000000000000e+00  0.0000000000000000e+00  0.0000000000000000e+00  0.0000000000000000e+00  0.0000000000000000e+00  0.0000000000000000e+00  0.0000000000000000e+00  0.0000000000000000e+00  0.0000000000000000e+00  0.0000000000000000e+00  0.0000000000000000e+00  0.0000000000000000e+00  0.0000000000000000e+00  0.0000000000000000e+00  0.0000000000000000e+00  0.0000000000000000e+00  0.0000000000000000e+00  0.0000000000000000e+00  0.0000000000000000e+00  0.0000000000000000e+00  0.0000000000000000e+00  0.0000000000000000e+00  0.0000000000000000e+00  0.0000000000000000e+00  0.0000000000000000e+00  0.0000000000000000e+00  0.0000000000000000e+00  0.0000000000000000e+00  0.0000000000000000e+00  0.0000000000000000e+00  0.0000000000000000e+00  0.0000000000000000e+00  0.0000000000000000e+00  0.0000000000000000e+00  0.0000000000000000e+00  0.0000000000000000e+00  0.0000000000000000e+00  0.0000000000000000e+00  0.0000000000000000e+00  0.0000000000000000e+00  0.0000000000000000e+00  0.0000000000000000e+00  0.0000000000000000e+00  0.0000000000000000e+00  0.0000000000000000e+00  0.0000000000000000e+00  0.0000000000000000e+00  0.0000000000000000e+00  0.0000000000000000e+00  0.0000000000000000e+00  0.0000000000000000e+00  0.0000000000000000e+00  0.0000000000000000e+00  0.0000000000000000e+00  0.0000000000000000e+00  0.0000000000000000e+00  0.0000000000000000e+00  0.0000000000000000e+00  0.0000000000000000e+00  0.0000000000000000e+00  0.0000000000000000e+00  0.0000000000000000e+00  0.0000000000000000e+00  0.0000000000000000e+00  0.0000000000000000e+00  0.0000000000000000e+00  0.0000000000000000e+00  0.0000000000000000e+00  0.0000000000000000e+00  0.0000000000000000e+00  0.0000000000000000e+00  0.0000000000000000e+00  0.0000000000000000e+00  0.0000000000000000e+00  0.0000000000000000e+00  0.0000000000000000e+00  0.0000000000000000e+00  0.0000000000000000e+00  0.0000000000000000e+00  0.0000000000000000e+00  0.0000000000000000e+00  0.0000000000000000e+00  0.0000000000000000e+00  0.0000000000000000e+00  0.0000000000000000e+00  0.0000000000000000e+00  0.0000000000000000e+00  0.0000000000000000e+00  0.0000000000000000e+00  0.0000000000000000e+00  0.0000000000000000e+00  0.0000000000000000e+00  0.0000000000000000e+00  0.0000000000000000e+00  0.0000000000000000e+00  0.0000000000000000e+00  0.0000000000000000e+00  0.0000000000000000e+00  0.0000000000000000e+00  0.0000000000000000e+00  0.0000000000000000e+00  0.0000000000000000e+00  0.0000000000000000e+00  0.0000000000000000e+00  0.0000000000000000e+00  0.0000000000000000e+00  0.0000000000000000e+00  0.0000000000000000e+00  0.0000000000000000e+00  0.0000000000000000e+00  0.0000000000000000e+00  0.0000000000000000e+00  0.0000000000000000e+00  0.0000000000000000e+00  0.0000000000000000e+00  0.0000000000000000e+00  0.0000000000000000e+00  0.0000000000000000e+00  2.9024573887683263e-03  2.9207465583494709e-03  2.9312675289021807e-03  2.9355606135350542e-03  2.9360189446507416e-03  2.9380947842309714e-03  2.9380212373101120e-03  2.9372545663484710e-03  2.9359239480256593e-03  2.9309904896809677e-03  2.9201937547021291e-03  2.9043716084483414e-03  2.8863209696825738e-03  2.8991546178445738e-03  2.9084850928568847e-03  2.9114008674964221e-03  2.9073171773982545e-03  2.8964965052005577e-03  2.9320758097226987e-03  2.9307836399990700e-03  2.9368131021128771e-03  2.9372854519325625e-03  2.9455998938473435e-03  2.9454531349963633e-03  2.9255246734006565e-03  2.9463000208405509e-03  2.9436093137691645e-03  2.9418639202935400e-03  2.9427045121758746e-03  2.9368912871340128e-03  2.9380917004612770e-03  2.9268944966396120e-03  2.9309273662209917e-03  2.9410932906586765e-03  2.9295481567009579e-03  2.9368861634071594e-03  2.9347272308023957e-03  2.9415057323829313e-03  2.9327289759960009e-03  2.9298988457343873e-03  2.9435006559928407e-03  2.9431915134215418e-03  2.9281718279143333e-03  2.9242512859723744e-03  2.8899041908933627e-03  2.8891142810047337e-03  2.8839032826790700e-03  2.9226454513412796e-03  2.9212931202500297e-03  2.8522439906512780e-03  3.0549168038845512e-04  2.7214697603921507e-04  3.1106014527148337e-04  3.1028237275509707e-04  2.7485555973369457e-04  2.8541396377171689e-03  3.2651098280232045e-04  3.1231041685853559e-04  3.6175838070975035e-04  3.4478175323576169e-04  2.9818273022701256e-04  3.2804922304520244e-04  4.0450966709157913e-04  3.2771810623869108e-04  2.8254232688070817e-03  2.7678946454427768e-03  2.7246118461894974e-03  2.6457213720874262e-03  2.5888551503694505e-03  2.4839813391048099e-03  2.5236436150955417e-03  2.4181792200601623e-03  2.3087737599149158e-03  2.8221979116883952e-03  2.7645171637490943e-03  2.7205495584988458e-03  2.6423145740349955e-03  2.5846986860406859e-03  2.4874421938424897e-03  2.5311502445848895e-03  2.4123167056041852e-03  2.5037437413362555e-03  2.3095779778824479e-03  2.3972226295535253e-03  2.1720546785663425e-03  2.2629224782078987e-03  2.3513210013619609e-03  2.3880968520107902e-03  2.5109254784317445e-03  2.3209603440762783e-03  2.4160477322320603e-03  2.2009254604885503e-03  2.2866070262352544e-03  2.0728508899686923e-03  2.0113836087047678e-03  2.0948521218235022e-03  2.0521893195484461e-03  2.1199654089612795e-03  2.1829084356018475e-03  2.2048134392339269e-03  1.6828817810247621e-04  1.8677566768436125e-04  1.9239796922883087e-04  1.8576698700824735e-04  2.3189206795617809e-03  2.1348768862821301e-03  1.9056046918863776e-03  2.3254549190152721e-03  2.1284042245804692e-03  2.2978988663672618e-03  2.0798484360196770e-03  2.2340476381409557e-03  2.3344514523533600e-03  2.1515197085495616e-03  2.3407416637196044e-03  2.1419543044708294e-03  2.3095965025080275e-03  1.9388142702783284e-03  2.0883912212245762e-03  2.2412403429774986e-03  1.9958609553710730e-03  2.1315561884086365e-03  1.9941362269833007e-03  2.1287094911393123e-03  1.8338938160831456e-03  1.9761023425222718e-03  1.9850114159356853e-03  2.1959078529811657e-03  1.9650330246404647e-03  1.9541756790592058e-03  1.7403948260577987e-03  1.7118302893501555e-03  1.9098529906938009e-03  1.6424266174465388e-03  1.8122313200247433e-03  1.5299042417002055e-03  1.6650607940264003e-03  1.7886696119828638e-03  1.3644482521314380e-03  3.3491006723386258e-04  1.8643748198903672e-03  1.9800110090072284e-03  2.2341796535800965e-03  2.0648628005748544e-03  2.3031043065707786e-03  2.1196299161522591e-03  2.3391758271034411e-03  2.1438995949467727e-03  2.3454529864448759e-03  2.1417750152309613e-03  2.3236304561330546e-03  2.1033147716063303e-03  2.2688221600339550e-03  2.0293629989412121e-03  2.1751851452165797e-03  1.9200888812465600e-03  2.0414396597742334e-03  1.9130246743410447e-03  1.7738401476445869e-03  1.8643013829970530e-03  2.1173324172615391e-03  1.9081680985649149e-03  1.7213874164210168e-03  1.6438469641421368e-03  1.4911758600917940e-03  2.1484371940849456e-03  1.9128350056923440e-03  1.3567059163818679e-03  1.8666044264675343e-03  1.6602007500173368e-03  1.2027178900583574e-03  2.3593736677332954e-03  2.3386910439720139e-03  3.3661319833515812e-04  1.8361755236756902e-04  1.8624465210258245e-04  1.2484697385064384e-03  2.1604083855663765e-04  3.7227448243219328e-04  1.7915149254760369e-03  2.4461281319078966e-03  1.6388952292563663e-03  1.4819227668989292e-03  1.4807197157454476e-03  1.8910323907800510e-04  1.6758344450554133e-03  2.3542732974797518e-03  1.8448616467810826e-03  1.0862253272240817e-03  1.9474558667574174e-03  2.0788177221745326e-03  1.5021096526275680e-03  2.4609884273630953e-03  1.5698243214903162e-03  1.4268850142034164e-03  2.5735770173677740e-03  1.9791767424625229e-03  1.6800066005995622e-03  1.5729767993904796e-03  2.5051714981682237e-03  2.4684135373495729e-03  2.5168921524589181e-03  2.5195998833661892e-03  1.0695937891241512e-03  1.1874593976193607e-03  1.3792495275401532e-03  9.2546513856557079e-04  9.7338819208330168e-04  1.0960447905712411e-03  1.0230308643906071e-03  1.2302238884568779e-03  8.2556492380567604e-04  2.5083979972551802e-03  1.3651895731920580e-03  1.5300997047531517e-03  1.3354887705742220e-03  1.2569826822192221e-03  2.3195148986729979e-03  8.9850976435670599e-04  2.6589091360189930e-03  2.6593549471524828e-03  1.1211836041696156e-03  1.2763530820967682e-03  9.0194966516002394e-04  1.1915369408724821e-03  1.7946485232744553e-03  1.4684258546723474e-03  2.5798860651738086e-03  1.6064214079655654e-03  1.3134546394951373e-03  1.4083702651108939e-03  1.1194890242721184e-03  1.1929831586797311e-03  9.3031168274052662e-04  9.6591997896580434e-04  8.2241801404077440e-04  9.9303573988859437e-04  2.7926788268481479e-03  2.6436750136350075e-03  9.2997618881941117e-04  9.8957126907096979e-04  1.2197007245718214e-03  9.6773252216692906e-04  7.3903014707396271e-04  7.2420241875745901e-04  2.7907227149782652e-03  1.0529326379558428e-03  9.0616933349982646e-04  7.6206877655268410e-04  6.6498458042814628e-04  2.9166185244176622e-03  1.3933106399844524e-03  1.1100621822398530e-03  5.2604169852473262e-04  2.9149398050681173e-03  2.8812063993664721e-03  2.8632705293230331e-03  9.0467277452210869e-04  1.1966698069306384e-03  1.3496662337277297e-03  1.0280500563784993e-03  1.6774955739852695e-03  1.4855445898946363e-03  1.1435160296641345e-03  1.2703058293592842e-03  1.5972545814492043e-03  1.3736234284624780e-03  1.6784904259348743e-03  2.4453889765755897e-03  1.4534152398174402e-03  1.1492909997970612e-03  2.8085879329668357e-03  2.8833153122447106e-03  2.8771477828647024e-03  2.8824066921315345e-03  6.4481290157478795e-04  5.8629594370416898e-04  7.6975803448893110e-05  9.5861372316133215e-05  9.5666399366554003e-05  8.5703622304643447e-05  6.4377506269109176e-04  7.1846825397154214e-04  7.8722835460195257e-04  1.8798583412991576e-03  2.8547374703036875e-03  2.8158692123292721e-03  2.8126259902678291e-03  2.7418638724562034e-03  2.8705054689135479e-03  2.7893296820843696e-03  1.8943476068516139e-03  1.9499041696947959e-03  1.2728769776844870e-03  1.0213094947771160e-03  1.3208179385431774e-03  1.0120766329251689e-03  1.3433942031407242e-03  1.0278474202359248e-03  1.3283773577890459e-03  6.8390669345128172e-04  6.8703771276591881e-04  1.5683419690894862e-03  1.2433862989459535e-03  1.1458193406969053e-03  6.3407258201999867e-04  1.4507211698262846e-03  1.1418181986811197e-03  1.4312174385972211e-03  1.0671200015802929e-03  1.3082419250982945e-03  9.8067045902003346e-04  1.2089002902903763e-03  1.5263734301807182e-03  1.4110423832238220e-03  1.0664779026445742e-03  1.2665054341672334e-03  9.2585460085938529e-04  1.1197333061771777e-03  1.4286855614576977e-03  1.2468120756435289e-03  9.0875537484393554e-04  1.0620508542637202e-03  7.7088897702866648e-04  8.7223400828948818e-04  1.1501608726707407e-03  9.3343512406462493e-04  1.1842963450276764e-03  9.4309687869613965e-04  7.3339862791801599e-04  1.1643331917999002e-03  8.9685503478266428e-04  1.0904523377296151e-03  1.4301700895163493e-03  5.9761890356948221e-04  8.0064442386259562e-04  9.7072612486075074e-04  6.3485117151224134e-04  2.0785375728109576e-03  2.7806785521271534e-03  2.8329910478232080e-03  1.0120515473653984e-03  1.2961748588740712e-03  9.6034534319363457e-04  2.6028077909458062e-03  2.7931453548126505e-03  2.7875702281594159e-03  9.9329021994279420e-04  9.0520422474956125e-04  9.6893275336488094e-04  2.1509771651600684e-03  2.1803183234650751e-03  5.7169882565860153e-04  1.6145628962071468e-03  2.8407046295215884e-03  5.0156931637794510e-04  3.5171791165403160e-04  6.5419227897999411e-04  1.2745327863967755e-03  2.7464428367143592e-03  2.7873505460193509e-03  1.5484664124185009e-03  5.2743149061469988e-04  4.3770454319981723e-04  2.6693361932779436e-03  2.6780179239094797e-03  1.1410755376836208e-03  8.2035349000263223e-04  4.4324665176951038e-04  3.7700745940849356e-04  4.5470062493030699e-04  1.2432053424491028e-03  1.2364187790670340e-03  9.2465226100788749e-04  1.1903644259189628e-03  1.4561869608968750e-03  5.2889703177697869e-04  6.3847410351846299e-04  1.1232518170684967e-03  8.4230453104936409e-04  8.0294891701178188e-04  1.3760010178665071e-03  5.4149384966882866e-04  7.0012447125945485e-04  6.0690509232625258e-04  1.9774944911070372e-03  8.6412964832901259e-04  6.5747411804966695e-04  1.6770195436834545e-03  2.7038663279765249e-03  7.8677722648531705e-04  4.1702213084632441e-04  9.1089817004883877e-04  8.0449257333038747e-04  2.7227744491304640e-03  2.7214380343357019e-03  2.5911175610522082e-03  5.9895491530077946e-04  1.1867729494261347e-03  1.0176233665100242e-03  6.7226925028149927e-04  2.9073975306413385e-03  2.8530301765015273e-03  2.8675087921665545e-03  2.7859179640536153e-03  2.7949299569940082e-03  2.8193247562496456e-03  2.8582983080959958e-03  2.7684545848145740e-03  2.6864597179761434e-03  2.8357667158076276e-03  2.7401203511900076e-03  1.6460212253518105e-03  1.7618395245099189e-03  1.8136847811649306e-03  2.5278403476182377e-04  2.0322449383510140e-04  5.0008194765807461e-04  2.7353346130003097e-03  3.1001314916364036e-04  2.4683111381411740e-04  6.6693296995684560e-04  2.8697499191028945e-03  2.7924051155732124e-03  2.8493791315573878e-03  2.7636674996060618e-03  2.6815494224639996e-03  2.6474863517725079e-03  2.7179242676120107e-03  2.5810431683092393e-03  2.6394829489482358e-03  2.4751039222254520e-03  2.5385152024114946e-03  2.7620653601616351e-03  2.4164896982219156e-03  2.5300585903362525e-03  2.1514486547394456e-03  2.9047444421494688e-03  2.7579262019331108e-03  2.9150163597032701e-03  4.7363818401206282e-04  3.2862429579126785e-04  4.0816734782456995e-04  3.1737062940187977e-04  2.8718396238810273e-03  2.6993803791346359e-03  1.7275732976986590e-03  8.3266276105442962e-04  2.4917735747057835e-03  2.2810556283138399e-03  1.5908718759454553e-03  2.3583630955111238e-03  2.3931468920603220e-03  2.4980823776379136e-03  2.4928019789572098e-03  2.6589519635032022e-03  2.6506516806805887e-03  1.8053306694705657e-03  1.9725521261240758e-03  1.8303394868286985e-03  4.9148568797871442e-04  7.3932407330434141e-04  1.6189542507662694e-03  4.0286698036572864e-04  5.3408704071527158e-04  2.5140040139268786e-03  2.4256231834756895e-03  2.5587026157117346e-03  2.4528485484904086e-03  2.0919698644783565e-03  3.7678525357699846e-04  3.1681431640864641e-04  5.9584927058869085e-04  3.3745300271101689e-04  6.6805588128974135e-04  2.8206827291835778e-03  1.3734932197166222e-03  1.4214126863774722e-03  1.6898002452960508e-03  1.6442702311782545e-03  2.2359392369333177e-03  2.3263785925261571e-03  2.5345398136987114e-03  3.4852781078468251e-04  2.4833095336092847e-03  2.3704058172268610e-04  4.2446670412493899e-04  2.6096176350517823e-03  1.3552503289751307e-03  2.3398027910650167e-04  4.8360284169204291e-04  2.1414856575959406e-03  2.4139796192430431e-04  2.3944396601715967e-04  2.3923206394449521e-03  5.0615919717977376e-04  1.4543079311669837e-03  3.6379425718320916e-04  3.4649866426217076e-04  6.8539695565504708e-04  3.2405123831753547e-04  3.0546684423063744e-04  5.6791539111755577e-04  6.0099058896640974e-04  7.7563305019790125e-04  2.8565684383094763e-03  3.3551655949264677e-04  6.2166700384972383e-04  5.4001177484163353e-04  2.7498549853395516e-04  4.8545751666558646e-04  2.3540033527904344e-04  2.1761038773101945e-03  1.8926494763369548e-03  1.4398482004095717e-04  2.2521626947851685e-04  3.8968189880797082e-04  2.6216607073790065e-04  4.4962504697711338e-04  1.3077003727732017e-04  6.7714475123338135e-04  3.4990029736605267e-04  6.7346196634061905e-04  3.6242404956986576e-04  6.1680743711234895e-04  1.3773321051043460e-04  2.7955681293878750e-03  5.5124114319448270e-04  2.9188966595861256e-03  1.4763250195911157e-03  2.7189851231583179e-03  1.3246921675543657e-04  2.6587414959285058e-03  2.6003417633361511e-04  2.6632163242852652e-03  1.3781242136301462e-04  3.2764162506079413e-04  2.8967806728896991e-03  1.4450984088341837e-04  2.5459586966176586e-03  3.2044105275158948e-04  1.5609391763501599e-03  3.2596539473320375e-04  9.1942516626454366e-04  4.9065151359632057e-04  1.6016932181117677e-03  1.3051344245443761e-03  1.0227293536053479e-03  1.7118901436358799e-03  1.6263227813201708e-03  2.7428021255399906e-03  1.8927103844703142e-03  1.6362959675558634e-03  2.5776079768935808e-03  2.2104301916637450e-03  2.8462944046646881e-03  2.1325304076575948e-03  7.2717807967338636e-04  1.8436941178606929e-03  1.3710375966474258e-03  2.3807458557546251e-04  2.0937182839122891e-03  1.3860772362571294e-03  2.4756947562115579e-03  1.7400309975429630e-03  7.9823830733045432e-04  2.3900515416940978e-03  2.3645807203579428e-03  9.4619027693276336e-04  1.5604099617184891e-03  1.8578970551432960e-03  6.4928255688984277e-04  1.4456374391918526e-03  1.8309510530642051e-03  1.3796948364193126e-03  1.6543615458997614e-03  1.5694177853524437e-03  3.8849039360207673e-04  6.7671309516185183e-04  7.0633671642070185e-04  7.1428861989531411e-04  1.0703977646689428e-03  5.3288053534745864e-04  1.6472562653525125e-03  2.6262959657984771e-03  1.6959328858445878e-03  2.1389351989191635e-03  2.8752401719354340e-04  1.7679768293285708e-03  1.0428157419382015e-03  1.8914171240447348e-03  2.2025621568521545e-03  8.9010940876985795e-04  9.7348983313268840e-05  1.9577975464190921e-03  1.1863382186072878e-03  1.9352888781938066e-03  1.0089491617245561e-03  1.0065362752205434e-04  2.8156301435239596e-03  1.7323825731534633e-03  7.0756515084510665e-04  1.8792957408710451e-03  8.4151764998813484e-05  1.9247407225637598e-03  1.4956738626479770e-03  1.7157296133517119e-03  2.7669265258754533e-03  3.3859643150313756e-04  5.4506454610018932e-04  6.9556951883181187e-04  1.3273470611076940e-04  2.7112660018319039e-03  1.5891978931311464e-03  2.3298599312603758e-03  1.9299104051170677e-03  3.0619992244624965e-04  1.3884527791597728e-03  1.5634389913504576e-03  2.6590255670144764e-03  1.9161474633977787e-03  6.3468507481419137e-04  4.8141715214963690e-04  2.6789821813626847e-03  2.0306469104902156e-04  2.7019164758474790e-03  1.2888114093894049e-04  1.9028733087304418e-03  2.6829873781842950e-03  3.9646775206057322e-04  5.1699818596916895e-04  1.1733384299470039e-03  2.8194719839378228e-03  4.0567092821171030e-04  1.4886666454197528e-03  6.5602361938208657e-04  3.2598511673233185e-04  8.2275328113619512e-04  7.2407515012060315e-04  1.7011878871812062e-03  3.1863894742045052e-04  2.9162918850088090e-03  2.3466429858395991e-03  8.8309620375881873e-04  2.7872690094921954e-03  2.1801482745950821e-04  1.1124491301756677e-03  8.2324388764519908e-04  2.8892885437993549e-04  2.4944016498777157e-03  6.0741965082473785e-04  1.3083638168892965e-03  2