<?xml version="1.0"?>
<VTKFile type="UnstructuredGrid"  version="0.1"  >
<UnstructuredGrid>
<Piece  NumberOfPoints="1235" NumberOfCells="2372">
<Points>
<DataArray  type="Float64"  NumberOfComponents="3"  format="ascii">0 0 0  0 1 0  1 1 0  1 0 0  1.1 -0.1 0  -0.1 -0.1 0  1.1 1.1 0  -0.1 1.1 0  0.5017718567538346 0.5016883214874887 0  0.2448436431830325 0.5429837667941918 0  0 0.9499999999997918 0  0 0.8999999999995836 0  0 0.8499999999996529 0  0 0.7999999999999998 0  0 0.7500000000003466 0  0 0.7000000000006934 0  0 0.6500000000010401 0  0 0.6000000000013869 0  0 0.5500000000017335 0  0 0.5000000000020587 0  0 0.4500000000018723 0  0 0.4000000000016644 0  0 0.3500000000014564 0  0 0.3000000000012483 0  0 0.2500000000010403 0  0 0.2000000000008322 0  0 0.1500000000006241 0  0 0.100000000000416 0  0 0.05000000000020799 0  0.04999999999989965 0 0  0.09999999999981467 0 0  0.1499999999997036 0 0  0.1999999999995579 0 0  0.2499999999994121 0 0  0.2999999999992664 0 0  0.3499999999991206 0 0  0.3999999999989749 0 0  0.4499999999988292 0 0  0.4999999999986943 0 0  0.5499999999988151 0 0  0.5999999999989468 0 0  0.6499999999990784 0 0  0.69999999999921 0 0  0.7499999999993417 0 0  0.7999999999994734 0 0  0.8499999999996051 0 0  0.8999999999997368 0 0  0.9499999999998684 0 0  1 0.04999999999989965 0  1 0.09999999999981467 0  1 0.1499999999997036 0  1 0.1999999999995579 0  1 0.2499999999994121 0  1 0.2999999999992664 0  1 0.3499999999991206 0  1 0.3999999999989749 0  1 0.4499999999988292 0  1 0.4999999999986943 0  1 0.5499999999988151 0  1 0.5999999999989468 0  1 0.6499999999990784 0  1 0.69999999999921 0  1 0.7499999999993417 0  1 0.7999999999994734 0  1 0.8499999999996051 0  1 0.8999999999997368 0  1 0.9499999999998684 0  0.9499999999997918 1 0  0.8999999999995836 1 0  0.8499999999996529 1 0  0.7999999999999998 1 0  0.7500000000003466 1 0  0.7000000000006934 1 0  0.6500000000010401 1 0  0.6000000000013869 1 0  0.5500000000017335 1 0  0.5000000000020587 1 0  0.4500000000018723 1 0  0.4000000000016644 1 0  0.3500000000014564 1 0  0.3000000000012483 1 0  0.2500000000010403 1 0  0.2000000000008322 1 0  0.1500000000006241 1 0  0.100000000000416 1 0  0.05000000000020799 1 0  -0.1 1.05000000000004 0  -0.1 1.000000000000079 0  -0.1 0.9500000000001624 0  -0.1 0.9000000000003032 0  -0.1 0.850000000000444 0  -0.1 0.8000000000005848 0  -0.1 0.7500000000007256 0  -0.1 0.7000000000008665 0  -0.1 0.6500000000010508 0  -0.1 0.6000000000012352 0  -0.1 0.5500000000014196 0  -0.1 0.500000000001539 0  -0.1 0.4500000000014195 0  -0.1 0.4000000000013 0  -0.1 0.3500000000011588 0  -0.1 0.3000000000010178 0  -0.1 0.2500000000008986 0  -0.1 0.2000000000007579 0  -0.1 0.1500000000006174 0  -0.1 0.1000000000005272 0  -0.1 0.05000000000040083 0  -0.1 2.671196597248127e-13 0  -0.1 -0.0499999999998666 0  -0.0500000000000906 -0.1 0  -1.730560139634463e-13 -0.1 0  0.04999999999975802 -0.1 0  0.09999999999961506 -0.1 0  0.1499999999994613 -0.1 0  0.199999999999302 -0.1 0  0.2499999999991446 -0.1 0  0.2999999999990088 -0.1 0  0.3499999999988296 -0.1 0  0.3999999999986936 -0.1 0  0.4499999999985143 -0.1 0  0.4999999999984002 -0.1 0  0.5499999999985247 -0.1 0  0.5999999999986493 -0.1 0  0.6499999999987955 -0.1 0  0.6999999999989417 -0.1 0  0.7499999999990659 -0.1 0  0.7999999999992116 -0.1 0  0.8499999999993573 -0.1 0  0.8999999999994526 -0.1 0  0.949999999999584 -0.1 0  0.9999999999997226 -0.1 0  1.049999999999861 -0.1 0  1.1 -0.0500000000000906 0  1.1 -1.730560139634463e-13 0  1.1 0.04999999999975802 0  1.1 0.09999999999961506 0  1.1 0.1499999999994613 0  1.1 0.199999999999302 0  1.1 0.2499999999991446 0  1.1 0.2999999999990088 0  1.1 0.3499999999988296 0  1.1 0.3999999999986936 0  1.1 0.4499999999985143 0  1.1 0.4999999999984002 0  1.1 0.5499999999985247 0  1.1 0.5999999999986493 0  1.1 0.6499999999987955 0  1.1 0.6999999999989417 0  1.1 0.7499999999990659 0  1.1 0.7999999999992116 0  1.1 0.8499999999993573 0  1.1 0.8999999999994526 0  1.1 0.949999999999584 0  1.1 0.9999999999997226 0  1.1 1.049999999999861 0  1.05000000000004 1.1 0  1.000000000000079 1.1 0  0.9500000000001624 1.1 0  0.9000000000003032 1.1 0  0.850000000000444 1.1 0  0.8000000000005848 1.1 0  0.7500000000007256 1.1 0  0.7000000000008665 1.1 0  0.6500000000010508 1.1 0  0.6000000000012352 1.1 0  0.5500000000014196 1.1 0  0.500000000001539 1.1 0  0.4500000000014195 1.1 0  0.4000000000013 1.1 0  0.3500000000011588 1.1 0  0.3000000000010178 1.1 0  0.2500000000008986 1.1 0  0.2000000000007579 1.1 0  0.1500000000006174 1.1 0  0.1000000000005272 1.1 0  0.05000000000040083 1.1 0  2.671196597248127e-13 1.1 0  -0.0499999999998666 1.1 0  0.25027592503787 0.56791091138045 0  0.2590588873699652 0.5918581416679304 0  0.2707807074671191 0.6145589580248214 0  0.2848782215864576 0.6359066687993716 0  0.301458188459578 0.6553749219159078 0  0.3201940538055208 0.6728693999155927 0  0.3404173504292305 0.6886401793001519 0  0.362012034059017 0.7025673083277597 0  0.3846947724273426 0.7146601675786121 0  0.4083027833193453 0.7248441196696266 0  0.4326663667735947 0.7330055777854541 0  0.4576591142885699 0.7391105897136054 0  0.4830459710857734 0.7432605336550071 0  0.5087234248712423 0.7450304746765652 0  0.5344308463868507 0.7441640274189547 0  0.5599000278913924 0.7404348478492422 0  0.5847665743093156 0.733844328218639 0  0.6087630800189247 0.7245447408000418 0  0.6315782731066781 0.7126856767530929 0  0.6529321349113967 0.6983392233804131 0  0.6725637051831235 0.6817157912981688 0  0.690281204644119 0.6631046499631689 0  0.7057764986737475 0.6425736448850391 0  0.7188324035787916 0.6204208575192435 0  0.7293354391108019 0.5969358697884289 0  0.7372789280316576 0.5724847523985194 0  0.7425754823048422 0.547311285065213 0  0.7449236015866426 0.5216869002786414 0  0.7445873674401231 0.4959733129458288 0  0.7418230979390854 0.4703755950553613 0  0.7369380939898668 0.4451144543996278 0  0.7298500698723404 0.4204146302802872 0  0.7206205490837844 0.3964137869455556 0  0.7095554764622815 0.3732018561399087 0  0.6964746515826938 0.3510829660282026 0  0.6814351106356439 0.3302559351806432 0  0.664687076983862 0.3107914391107272 0  0.6459720601233999 0.2933132874769954 0  0.6253367582253097 0.2781180264947103 0  0.6030298419715203 0.2655565118473162 0  0.5795713882133453 0.255336552293684 0  0.5551265055251031 0.2478979639048221 0  0.5298600660888688 0.2443052480671635 0  0.5043219994998761 0.2442807878616181 0  0.4790013683108458 0.2476298319775515 0  0.4541970028798557 0.2538950330295585 0  0.430107775376379 0.2625644518819437 0  0.4068859389935988 0.2733879364998168 0  0.3846513830848846 0.2861390625051984 0  0.3635607939117945 0.3007212553823853 0  0.3437492847624146 0.3170132891794879 0  0.3253533173078124 0.3348748704048461 0  0.3083998445517802 0.3541138382266881 0  0.2930154176688355 0.3745986660027165 0  0.2792606427153519 0.3962247829582204 0  0.2673081004102775 0.4188704660209336 0  0.2575082568521614 0.4425103292792644 0  0.2500992040970083 0.4670004970779608 0  0.2452528144098651 0.4920852989806809 0  0.2433842556150077 0.5175313021288032 0  0.2689068933361682 0.5507028803240194 0  0.2749768699266287 0.4614708856218748 0  0.3098939871140204 0.6311312689217697 0  0.5385894625722339 0.2656840390779006 0  0.4501208843216656 0.2784289347005894 0  0.622346081441198 0.303713320452967 0  0.3866055154204803 0.3113246430516701 0  0.3339655084424575 0.3590383314521992 0  0.6657625544898816 0.6567385932181062 0  0.5871185112977976 0.7088353100468058 0  0.4974758014927217 0.7214745934439981 0  0.7122778875905066 0.5796951802072604 0  0.7229905579416805 0.4865951644363771 0  0.4250999044722567 0.7079164109155316 0  0.7044287406661793 0.4165385679412469 0  0.3615065152562165 0.6778341097067165 0  0.675011202928167 0.3511066031773477 0  0.305218493380228 0.3977609190125875 0  0.6288468988717506 0.6876454731716202 0  0.5435131288053814 0.7182203339523588 0  0.7220906675366928 0.5339549777231473 0  0.6930311168702168 0.6224786774571445 0  0.583696086849222 0.2835955474377308 0  0.2832312426200956 0.5943800967034181 0  0.494895730155716 0.2678127514958648 0  0.2657422581510615 0.5057458109730281 0  0.6952707379750187 0.3930235195311784 0  0.6784561633476875 0.4117562255372206 0  0.6879787290814258 0.4366114463538125 0  0.6611771287113067 0.4312025679732572 0  0.6721556267774876 0.4581660966311528 0  0.6487593892300427 0.4539328926497891 0  0.6287243054012259 0.4298534133545875 0  0.6540351183682558 0.480008727963005 0  0.6214570699682314 0.4743065456046711 0  0.6385960412488519 0.5104842157037065 0  0.5891283765668462 0.4428804007452274 0  0.6036604640207417 0.3961574226101471 0  0.5579873065135226 0.4129714060033731 0  0.5698767371353156 0.3672773625301295 0  0.5233392515005983 0.3856686621133861 0  0.5334689103652838 0.3374623492130802 0  0.4900060058845817 0.35282607105694 0  0.4838094672454141 0.3985605170099097 0  0.4492055870911718 0.3680320770264588 0  0.4425195833381156 0.4113722526028779 0  0.41769214468981 0.3848305921102666 0  0.40268348173794 0.4178655184907694 0  0.6011373980279809 0.363163342634761 0  0.5025436915252267 0.3213402859107904 0  0.6745347685589249 0.5165621586563141 0  0.6497632801034705 0.5453981390180508 0  0.6106651799343368 0.5455784381302422 0  0.6331716658363986 0.5863832295491526 0  0.5865526944910745 0.580687782679536 0  0.602675886341717 0.6177053920535184 0  0.5638174323221674 0.6211030659574839 0  0.58702892209738 0.6481673214127334 0  0.5407547111205204 0.6516276133281179 0  0.5243751562147658 0.6141404530762097 0  0.4958687519712511 0.6506496874946146 0  0.4819762732531162 0.6115626219481217 0  0.4644995589839855 0.638169696565362 0  0.4415934161750749 0.6148988048348003 0  0.4210865022878401 0.6372025054895385 0  0.3964735880371617 0.6155821314128265 0  0.420778908284257 0.5757043862926153 0  0.3747028053554052 0.57706320489424 0  0.3992038653993316 0.5388076794791524 0  0.3545410302051999 0.5422478261540549 0  0.3778512776878822 0.5040838669106904 0  0.3353472223189557 0.
[...]
<PointData  Scalars="v"> 
<DataArray  type="Float64"  Name="v"  format="ascii">0.0000000000000000e+00  0.0000000000000000e+00  0.0000000000000000e+00  0.0000000000000000e+00  0.0000000000000000e+00  0.0000000000000000e+00  0.0000000000000000e+00  0.0000000000000000e+00  3.8163169915656829e-05  3.3603095033882243e-05  0.0000000000000000e+00  0.0000000000000000e+00  0.0000000000000000e+00  0.0000000000000000e+00  0.0000000000000000e+00  0.0000000000000000e+00  0.0000000000000000e+00  0.0000000000000000e+00  0.0000000000000000e+00  0.0000000000000000e+00  0.0000000000000000e+00  0.0000000000000000e+00  0.0000000000000000e+00  0.0000000000000000e+00  0.0000000000000000e+00  0.0000000000000000e+00  0.0000000000000000e+00  0.0000000000000000e+00  0.0000000000000000e+00  0.0000000000000000e+00  0.0000000000000000e+00  0.0000000000000000e+00  0.0000000000000000e+00  0.0000000000000000e+00  0.0000000000000000e+00  0.0000000000000000e+00  0.0000000000000000e+00  0.0000000000000000e+00  0.0000000000000000e+00  0.0000000000000000e+00  0.0000000000000000e+00  0.0000000000000000e+00  0.0000000000000000e+00  0.0000000000000000e+00  0.0000000000000000e+00  0.0000000000000000e+00  0.0000000000000000e+00  0.0000000000000000e+00  0.0000000000000000e+00  0.0000000000000000e+00  0.0000000000000000e+00  0.0000000000000000e+00  0.0000000000000000e+00  0.0000000000000000e+00  0.0000000000000000e+00  0.0000000000000000e+00  0.0000000000000000e+00  0.0000000000000000e+00  0.0000000000000000e+00  0.0000000000000000e+00  0.0000000000000000e+00  0.0000000000000000e+00  0.0000000000000000e+00  0.0000000000000000e+00  0.0000000000000000e+00  0.0000000000000000e+00  0.0000000000000000e+00  0.0000000000000000e+00  0.0000000000000000e+00  0.0000000000000000e+00  0.0000000000000000e+00  0.0000000000000000e+00  0.0000000000000000e+00  0.0000000000000000e+00  0.0000000000000000e+00  0.0000000000000000e+00  0.0000000000000000e+00  0.0000000000000000e+00  0.0000000000000000e+00  0.0000000000000000e+00  0.0000000000000000e+00  0.0000000000000000e+00  0.0000000000000000e+00  0.0000000000000000e+00  0.0000000000000000e+00  0.0000000000000000e+00  0.0000000000000000e+00  0.0000000000000000e+00  0.0000000000000000e+00  0.0000000000000000e+00  0.0000000000000000e+00  0.0000000000000000e+00  0.0000000000000000e+00  0.0000000000000000e+00  0.0000000000000000e+00  0.0000000000000000e+00  0.0000000000000000e+00  0.0000000000000000e+00  0.0000000000000000e+00  0.0000000000000000e+00  0.0000000000000000e+00  0.0000000000000000e+00  0.0000000000000000e+00  0.0000000000000000e+00  0.0000000000000000e+00  0.0000000000000000e+00  0.0000000000000000e+00  0.0000000000000000e+00  0.0000000000000000e+00  0.0000000000000000e+00  0.0000000000000000e+00  0.0000000000000000e+00  0.0000000000000000e+00  0.0000000000000000e+00  0.0000000000000000e+00  0.0000000000000000e+00  0.0000000000000000e+00  0.0000000000000000e+00  0.0000000000000000e+00  0.0000000000000000e+00  0.0000000000000000e+00  0.0000000000000000e+00  0.0000000000000000e+00  0.0000000000000000e+00  0.0000000000000000e+00  0.0000000000000000e+00  0.0000000000000000e+00  0.0000000000000000e+00  0.0000000000000000e+00  0.0000000000000000e+00  0.0000000000000000e+00  0.0000000000000000e+00  0.0000000000000000e+00  0.0000000000000000e+00  0.0000000000000000e+00  0.0000000000000000e+00  0.0000000000000000e+00  0.0000000000000000e+00  0.0000000000000000e+00  0.0000000000000000e+00  0.0000000000000000e+00  0.0000000000000000e+00  0.0000000000000000e+00  0.0000000000000000e+00  0.0000000000000000e+00  0.0000000000000000e+00  0.0000000000000000e+00  0.0000000000000000e+00  0.0000000000000000e+00  0.0000000000000000e+00  0.0000000000000000e+00  0.0000000000000000e+00  0.0000000000000000e+00  0.0000000000000000e+00  0.0000000000000000e+00  0.0000000000000000e+00  0.0000000000000000e+00  0.0000000000000000e+00  0.0000000000000000e+00  0.0000000000000000e+00  0.0000000000000000e+00  0.0000000000000000e+00  0.0000000000000000e+00  0.0000000000000000e+00  0.0000000000000000e+00  0.0000000000000000e+00  0.0000000000000000e+00  0.0000000000000000e+00  0.0000000000000000e+00  0.0000000000000000e+00  0.0000000000000000e+00  0.0000000000000000e+00  0.0000000000000000e+00  0.0000000000000000e+00  0.0000000000000000e+00  0.0000000000000000e+00  0.0000000000000000e+00  0.0000000000000000e+00  3.3576241969721656e-05  3.3778564209255678e-05  3.4146393875680282e-05  3.4608148468359438e-05  3.5185896530251238e-05  3.5775977103037060e-05  3.6324291063952345e-05  3.6775599724479550e-05  3.7165927952403246e-05  3.7464471016454178e-05  3.7676644411035387e-05  3.7809905349280831e-05  3.7863686290030142e-05  3.7865337434874236e-05  3.7783801598764228e-05  3.7683850976270175e-05  3.7560839034438884e-05  3.7465278522430232e-05  3.7367112573567455e-05  3.7286509123021115e-05  3.7218681467025925e-05  3.7201401868325643e-05  3.7235293798612831e-05  3.7293189231986170e-05  3.7364107263729532e-05  3.7456803951310115e-05  3.7576316856366470e-05  3.7716747815821287e-05  3.7851232218724380e-05  3.7943343313704721e-05  3.7983292300827652e-05  3.7946332425259065e-05  3.7802017612016637e-05  3.7581203140708991e-05  3.7248679128115912e-05  3.6814823559043712e-05  3.6317091914143029e-05  3.5784004136607657e-05  3.5302670370323775e-05  3.4918218940749075e-05  3.4603649384014919e-05  3.4455195892980698e-05  3.4521058853918982e-05  3.4824972362265613e-05  3.5331087781319639e-05  3.5885622750506368e-05  3.6454844304116110e-05  3.6958654928713124e-05  3.7379613153342304e-05  3.7693241583634221e-05  3.7866144043409456e-05  3.7857461862563081e-05  3.7717176919495572e-05  3.7407285095249948e-05  3.6963378892970768e-05  3.6419656363770286e-05  3.5817506925744538e-05  3.5137698383692496e-05  3.4474322028565403e-05  3.3942156845242226e-05  3.5479162517948315e-05  3.6323979806301100e-05  3.6125776883296345e-05  3.6029946571380445e-05  3.6752731064350627e-05  3.6563774749785060e-05  3.7396525564401480e-05  3.7486689887985504e-05  3.7787391096166014e-05  3.7898537480290542e-05  3.7929877727338750e-05  3.7850533258265804e-05  3.7979068552668787e-05  3.7596747165528501e-05  3.7844740437357788e-05  3.6896588291507062e-05  3.7277842443336671e-05  3.7170065766341854e-05  3.7843767519257768e-05  3.7962559916861316e-05  3.7928908895138039e-05  3.7792252981976208e-05  3.6293775510476277e-05  3.5583203802518327e-05  3.6336049017966721e-05  3.5756571396565129e-05  3.7695115104579315e-05  3.7807401522787274e-05  3.7939760891735541e-05  3.7913301750556204e-05  3.8017176566617974e-05  3.8018132730413982e-05  3.7905017479393337e-05  3.8091544577828949e-05  3.8135389151947266e-05  3.8174522529741390e-05  3.8013134490415078e-05  3.7636398954945262e-05  3.7817421141975725e-05  3.7329739953637102e-05  3.7618038419894590e-05  3.6983586484133510e-05  3.7294480017531345e-05  3.7706473016662183e-05  3.7509201532981156e-05  3.7715710690891717e-05  3.7582113980906379e-05  3.7613954654849666e-05  3.7281579218724908e-05  3.6928220710230131e-05  3.8100518167768551e-05  3.8155921317901917e-05  3.8257296385272502e-05  3.8143152333265567e-05  3.8276418864705139e-05  3.8155166043498019e-05  3.8207935118616508e-05  3.8109005609350011e-05  3.8145687722190158e-05  3.8201530148954456e-05  3.8038011231113632e-05  3.8042850994645546e-05  3.7891621634458014e-05  3.7786444466518725e-05  3.7569228461219769e-05  3.7290902530385819e-05  3.7653334550946035e-05  3.7012433716753325e-05  3.7474857643809514e-05  3.6821388164142266e-05  3.7324576498522860e-05  3.6714569465496895e-05  3.6628954194722221e-05  3.7155690281056679e-05  3.8059805931634535e-05  3.8063158111551153e-05  3.7495279593534481e-05  3.7532168440139657e-05  3.7709264522179993e-05  3.8037780132850676e-05  3.8045895170849806e-05  3.7983629269824601e-05  3.6721624802109176e-05  3.7143973109826375e-05  3.6848287538310650e-05  3.7946635270222757e-05  3.8041014342160777e-05  3.7700657284132037e-05  3.8204924706375486e-05  3.8066102928473197e-05  3.6376989965022019e-05  3.7660119788081711e-05  3.8020120743451579e-05  3.7416037526657043e-05  3.7185862073353441e-05  3.7222228641437093e-05  3.7114459120442169e-05  3.7335974177885198e-05  3.6660871041063494e-05  3.6940850093345484e-05  3.6878081648816365e-05  3.6421539424507187e-05  3.6862311563151330e-05  3.6459333381244382e-05  3.6153084046478067e-05  3.8302557936684965e-05  3.6600415792783967e-05  3.8189475554790747e-05  3.7929694875419929e-05  3.7540438533111778e-05  3.7250863047579594e-05  3.8013909133564807e-05  3.7901235860295604e-05  3.8038830233865412e-05  3.6431005415177615e-05  3.7945091535423911e-05  3.7935946209029892e-05  3.7406392282928499e-05  3.7335032522013864e-05  3.7452350216677625e-05  3.7152069924355103e-05  3.6900996497026709e-05  3.7870314853319064e-05  3.7971889636250355e-05  3.7899455512648276e-05  3.7995533310945899e-05  3.7819483092717649e-05  3.7360896255904800e-05  3.7539660930048295e-05  3.7039341218042240e-05  3.6910708106693050e-05  3.6510490089054274e-05  3.7772473549937182e-05  3.7531235488379309e-05  3.7414138684299665e-05  3.7512469535037169e-05  3.7483811188815047e-05  3.7243554379507099e-05  3.7229632945330173e-05  3.6631173398309493e-05  3.8059187295138555e-05  3.7949156789981604e-05  3.7008501872547334e-05  3.7725734362580310e-05  3.7967170914780630e-05  3.6331408133456056e-05  3.6611601106370800e-05  3.7524626385668285e-05  3.6530542997026890e-05  3.6817644539007808e-05  3.7368330343362303e-05  3.7814914428971719e-05  3.7460307097783201e-05  3.7826506313270688e-05  3.8048343590835260e-05  3.7999586801759148e-05  3.7836232981592618e-05  3.5979100388898843e-05  3.7739861319543214e-05  3.7900631358248552e-05  3.5790293133817331e-05  3.6049594058273202e-05  3.7538589572860169e-05  3.7786499457724040e-05  3.8034498548304814e-05  3.7996700584540603e-05  3.5494580016486137e-05  3.5836352148624172e-05  3.5903491281871580e-05  3.6035489716897632e-05  3.6099714735152656e-05  3.6486689637118533e-05  3.7507457352159784e-05  3.7897108271463721e-05  3.5616003996863271e-05  3.7973730612412242e-05  3.7302822456879832e-05  3.6585917318203192e-05  3.7511488815619418e-05  3.8281236708455451e-05  3.7007286467816164e-05  3.8022542799350019e-05  3.7931845010403175e-05  3.7979777877946339e-05  3.8001267711208505e-05  3.6123522240848927e-05  3.7893211777238512e-05  3.6659739753986165e-05  3.6741077087300572e-05  3.6905699381573461e-05  3.6923057717357869e-05  3.6575556070007892e-05  3.8087608919183972e-05  3.7539210715904707e-05  3.6631513243972118e-05  3.7926332968929700e-05  3.7988328751603254e-05  3.8254329385454780e-05  3.6401328882341343e-05  3.8127996966102375e-05  3.6139079102689453e-05  3.7703574554904015e-05  3.7849361631247500e-05  3.6571944177567713e-05  3.7070800323433592e-05  3.7919720573414068e-05  3.8044941766423842e-05  3.6651012774258680e-05  3.7140679017979519e-05  3.8111373227750099e-05  3.8238113985472417e-05  3.7131994522419584e-05  3.7391870276553833e-05  3.6052800817538367e-05  3.6274416583505320e-05  3.6888902043470108e-05  3.7046900697330573e-05  3.6991131811687018e-05  3.6638030286381154e-05  3.6372898575342535e-05  3.7726715702977376e-05  3.6205350710727362e-05  3.7701240996917718e-05  3.6178097210721506e-05  3.7860810332542353e-05  3.6319100436529233e-05  3.7365517978489716e-05  3.8238405326055626e-05  3.6443014152097486e-05  3.8101538405483276e-05  3.5806902188152482e-05  3.7487243743395715e-05  3.8094157002734433e-05  3.8040282889973418e-05  3.6801906119895908e-05  3.7549141486430654e-05  3.7359049281256714e-05  3.8023331477646640e-05  3.7518236095824927e-05  3.6960471361450318e-05  3.7959231075556964e-05  3.6348664793768122e-05  3.7540279525483275e-05  3.8336294232198752e-05  3.3372107782583306e-05  3.5443583855839895e-05  3.5718043384182144e-05  3.6412420552094549e-05  3.7020935339380642e-05  3.7566007635687180e-05  3.6989831920088422e-05  3.6306060910888544e-05  3.6117121283249150e-05  3.2713999454988087e-05  3.0455165381700914e-05  2.9988472696620437e-05  3.1151006087077830e-05  3.7301794792221150e-06  3.7472624149934769e-05  4.8915819736489124e-06  3.7142412297678763e-06  3.7795585835614889e-05  3.8387397930645549e-06  4.2270843050995415e-06  3.2783409127829780e-06  3.7769403506534883e-06  3.7051103888094919e-05  2.4098723287141661e-06  3.6825201701574233e-05  3.3732335290360311e-05  3.1777786554233913e-05  3.3797389681139253e-05  3.1524049521938767e-05  3.7510317882300674e-05  7.4885932115490305e-06  5.5576420215713557e-06  6.5906888375982580e-06  5.4873771894848488e-06  5.5726001902961912e-06  4.8542515858288085e-06  6.6112494925627711e-06  3.1068993494036128e-06  4.9251157791265995e-06  8.0822592913328081e-06  5.4312843666045065e-06  4.4579765929479715e-06  1.7388518720344426e-06  1.3224950984141695e-06  2.3850477001995180e-06  2.4276333186335957e-06  1.5950019768539119e-06  2.1470509302760885e-06  2.2916777319993365e-06  1.7344995224611341e-06  3.1062542601453895e-05  2.7951114720142525e-05  2.8267908696543324e-05  2.4277430437360341e-05  2.3940567900063575e-05  2.4489908616327640e-05  2.0096696012288126e-05  2.0581974087975941e-05  1.6241215098145945e-05  1.6370456141280523e-05  2.0383551739796172e-05  1.6458201443480637e-05  2.0420061897151586e-05  1.6444997848279754e-05  2.0426619758717102e-05  1.6328691513727943e-05  2.0131922898725084e-05  1.5991844556475691e-05  1.9340163661999935e-05  1.5010997851440369e-05  1.7873016979254255e-05  2.2407053553687619e-05  2.0445078078915574e-05  2.5272367356362840e-05  2.1963123684940947e-05  1.5620232583671492e-05  2.7407962869271986e-05  2.3845171203127084e-05  2.8488273015928240e-05  2.4349887626363700e-05  2.9538566049961431e-05  1.9397065741716312e-05  2.4277165426907366e-05  2.9475642034774132e-05  2.3467302393602418e-05  2.7422423236214673e-05  2.4903900067122971e-05  2.7000288383587591e-05  1.2064566339509233e-05  1.7009063877724659e-05  3.1706358539412560e-05  2.1060428892967760e-05  2.4997145394965254e-05  1.2393528148813884e-05  3.3146678523598728e-05  3.0849757974703092e-05  2.8724091259794231e-05  2.2665756216298542e-05  2.6839330574344189e-05  1.9927558978716369e-05  2.3050073492434931e-05  1.6819870879566896e-05  1.9940750978637046e-05  2.5738407256940672e-05  2.2722320710163928e-05  1.6933459561160016e-05  1.9553287288413874e-05  1.3978903069473830e-05  1.6207416348352959e-05  2.2373404730325542e-05  1.7985556076914351e-05  2.2789111064306296e-05  1.8953193410948769e-05  2.3011532127730860e-05  1.9188309528329054e-05  2.3737204869201481e-05  1.8987231041668564e-05  2.2748551973283049e-05  1.5334424470251200e-05  1.8011860733567131e-05  2.1680342139167799e-05  1.6485531482527211e-05  1.9998384577900989e-05  1.4469593734462608e-05  2.5309280195751354e-05  2.3517109960543707e-05  2.7527053232323977e-05  2.9117478322487829e-05  2.7314106474042280e-05  2.7037299168847253e-05  2.1222717653754194e-05  2.4001489412890656e-05  1.3147306725642067e-05  1.1384733177976049e-05  2.8192327277206811e-05  1.7853659529112665e-05  2.0399763059259610e-05  2.6505052164216609e-05  2.2794026585992657e-05  2.9295846355549151e-05  2.4812277203580185e-05  3.0115473123865205e-05  2.6736777941919491e-05  2.0415659783444601e-05  2.1615386064231404e-05  2.6734353809454572e-05  2.2113630125071848e-05  2.6639364683229870e-05  2.1948483594891105e-05  2.6224824880378472e-05  2.1035900857076586e-05  2.4013729303039792e-05  1.9175976514832024e-05  2.1498866736502600e-05  1.6686243695733053e-05  1.8414703470489543e-05  1.3855936981773547e-05  1.5051402752406153e-05  1.7414233550629451e-05  1.2271817599519471e-05  9.8486294083108518e-06  1.9519178914108013e-05  1.5923767501588023e-05  1.1918425723520872e-05  1.2452527648499607e-05  1.6607122347202057e-05  1.2679919673015175e-05  8.5441401829613794e-06  2.6061838821397809e-05  1.7726915584764373e-05  1.3055780673799692e-05  8.4254024524620876e-06  1.7899806065681822e-05  1.3170385736013265e-05  6.4783371252753299e-06  1.7615315906247467e-05  1.3309275685995124e-05  1.7804277816897929e-05  1.3700089091161170e-05  1.9085576029186573e-05  1.3792013146027082e-05  1.8482159205951726e-05  1.3913520858484834e-05  1.9106923012600653e-05  9.8496416373333395e-06  1.3888965826949763e-05  1.8933919403303442e-05  2.4672563117966899e-05  2.4019106393903455e-05  1.8311422760498119e-05  2.2773827288869920e-05  1.6978413334468912e-05  2.0822806503463092e-05  2.6702378452354879e-05  2.4277551079587350e-05  1.8545954178016577e-05  2.1406933161325580e-05  1.6036427212539952e-05  1.8074615048528624e-05  2.3405906789468597e-05  1.9251612852557347e-05  2.4191901682069209e-05  1.9387136307525206e-05  2.3808597272570845e-05  1.3143429085516388e-05  2.8720723603047435e-05  2.8391259698697652e-05  2.2484800589496258e-05  2.5797137475630588e-05  2.9885978572839093e-05  2.0127712749713805e-05  2.2885993484490159e-05  1.6877399981585851e-05  1.4871674604646847e-05  2.8338599035243920e-05  3.2679568269317822e-05  3.3025521906101503e-05  2.5523302785980732e-05  2.0358172208982914e-05  3.1328354816105163e-05  1.3243398778356167e-05  3.5910791967841093e-05  2.9310842937539650e-05  1.1045798017371039e-05  2.0481682121733547e-05  9.9860658705208914e-06  3.3806623002704046e-05  3.1114504028577692e-05  1.3140120218499429e-05  3.2086402802188384e-05  3.4429826184368605e-05  7.3918327334678325e-06  3.1680536652609444e-05  1.4454538250392859e-05  3.1477103924990497e-05  3.0180085033421560e-05  2.4439803499763802e-05  1.8569861522645342e-05  1.2863556938498316e-05  1.1696811100603307e-05  1.2542423011382136e-05  9.2673331714243037e-06  3.0621887545605346e-05  2.7801457661223541e-05  3.2800930829096437e-05  3.6169622241909052e-05  3.5826538006577364e-05  3.4002086465451943e-05  5.9958726867405752e-06  4.6604802199186649e-06  3.8694524766221135e-06  1.3084969747183615e-05  3.5317006720951480e-05  3.7205925748258589e-05  3.2110424270934306e-05  1.5696734370471176e-05  1.3952013377389145e-05  1.7641503644927530e-05  3.0632156772995912e-05  2.2021290020457480e-05  1.3811023970904995e-05  3.2762849273151759e-05  3.4494701455639381e-05  2.2469640694509546e-05  2.2710501941240543e-05  3.2888682557988775e-05  3.4984461621478377e-05  2.4280401599131376e-05  2.6812920141050217e-05  2.9664393593989706e-05  3.3463264075024639e-05  3.4094176343671676e-05  1.4486250225579599e-05  1.1569352481689758e-05  3.7372155994726407e-05  1.5793609329074928e-05  2.8218810843272367e-05  3.4914005865356383e-05  3.2512873916290763e-05  3.4005423209216997e-05  8.7538663390050620e-06  3.5916789144040471e-05  7.0085598568093097e-06  7.3656332419370429e-06  2.8047003007779112e-05  1.0025307533957308e-05  1.0488509410761600e-05  9.2694628634825399e-06  8.7475928037002499e-06  1.6092238385097616e-05  1.1033849989614403e-05  3.0142736475890622e-05  3.6704411001901363e-05  3.5470948063555922e-05  6.3528391055310230e-06  6.9828827406224423e-06  8.0173372595204154e-06  7.5525133097084846e-06  8.3752055250680814e-06  1.0391592653345839e-05  6.5968751465781726e-06  9.3092597968116679e-06  3.0757705446709353e-05  3.0257657174954573e-05  2.6034884552196408e-05  2.6860665546674881e-05  3.3474596623300099e-05  3.0493526488240545e-05  3.1193579666241315e-05  2.9577358686802179e-05  3.1168261211179907e-05  3.1728598537100984e-05  2.9828290245280162e-05  3.1229074304586967e-05  2.8003769915007991e-05  2.7333035665596199e-05  2.6577698614815832e-05  3.1469917988822951e-05  3.1448751374451571e-05  3.4293768880299996e-05  2.8583604263788584e-05  3.2226878607738531e-05  2.9781447845425317e-05  3.3204811662235506e-05  1.1485631413393698e-05  3.5782559424566523e-05  3.3883133300961829e-05  3.3279938672209518e-05  3.0861994160185762e-05  3.0805162268024911e-05  2.4574858399823125e-05  8.0453092927339448e-06  3.4048342894008018e-05  3.2013442005176058e-05  2.3920835454533152e-05  3.2423737033846089e-05  3.2541050981670063e-05  3.4696431924018322e-05  3.3937573643876240e-05  3.5466162784602782e-05  3.6016001279078963e-05  3.5115195125221392e-05  3.2662967300863425e-05  3.7151558743763358e-05  3.6190193391122402e-05  3.6077193236466081e-05  3.5774295030329750e-05  3.6018919994996695e-05  2