<?xml version="1.0"?>
<VTKFile type="UnstructuredGrid"  version="0.1"  >
<UnstructuredGrid>
<Piece  NumberOfPoints="1235" NumberOfCells="2372">
<Points>
<DataArray  type="Float64"  NumberOfComponents="3"  format="ascii">0 0 0  0 1 0  1 1 0  1 0 0  1.1 -0.1 0  -0.1 -0.1 0  1.1 1.1 0  -0.1 1.1 0  0.5002609509419399 0.5002895264509379 0  0.24800944693392 0.5413274249477394 0  0 0.9499999999997918 0  0 0.8999999999995836 0  0 0.8499999999996529 0  0 0.7999999999999998 0  0 0.7500000000003466 0  0 0.7000000000006934 0  0 0.6500000000010401 0  0 0.6000000000013869 0  0 0.5500000000017335 0  0 0.5000000000020587 0  0 0.4500000000018723 0  0 0.4000000000016644 0  0 0.3500000000014564 0  0 0.3000000000012483 0  0 0.2500000000010403 0  0 0.2000000000008322 0  0 0.1500000000006241 0  0 0.100000000000416 0  0 0.05000000000020799 0  0.04999999999989965 0 0  0.09999999999981467 0 0  0.1499999999997036 0 0  0.1999999999995579 0 0  0.2499999999994121 0 0  0.2999999999992664 0 0  0.3499999999991206 0 0  0.3999999999989749 0 0  0.4499999999988292 0 0  0.4999999999986943 0 0  0.5499999999988151 0 0  0.5999999999989468 0 0  0.6499999999990784 0 0  0.69999999999921 0 0  0.7499999999993417 0 0  0.7999999999994734 0 0  0.8499999999996051 0 0  0.8999999999997368 0 0  0.9499999999998684 0 0  1 0.04999999999989965 0  1 0.09999999999981467 0  1 0.1499999999997036 0  1 0.1999999999995579 0  1 0.2499999999994121 0  1 0.2999999999992664 0  1 0.3499999999991206 0  1 0.3999999999989749 0  1 0.4499999999988292 0  1 0.4999999999986943 0  1 0.5499999999988151 0  1 0.5999999999989468 0  1 0.6499999999990784 0  1 0.69999999999921 0  1 0.7499999999993417 0  1 0.7999999999994734 0  1 0.8499999999996051 0  1 0.8999999999997368 0  1 0.9499999999998684 0  0.9499999999997918 1 0  0.8999999999995836 1 0  0.8499999999996529 1 0  0.7999999999999998 1 0  0.7500000000003466 1 0  0.7000000000006934 1 0  0.6500000000010401 1 0  0.6000000000013869 1 0  0.5500000000017335 1 0  0.5000000000020587 1 0  0.4500000000018723 1 0  0.4000000000016644 1 0  0.3500000000014564 1 0  0.3000000000012483 1 0  0.2500000000010403 1 0  0.2000000000008322 1 0  0.1500000000006241 1 0  0.100000000000416 1 0  0.05000000000020799 1 0  -0.1 1.05000000000004 0  -0.1 1.000000000000079 0  -0.1 0.9500000000001624 0  -0.1 0.9000000000003032 0  -0.1 0.850000000000444 0  -0.1 0.8000000000005848 0  -0.1 0.7500000000007256 0  -0.1 0.7000000000008665 0  -0.1 0.6500000000010508 0  -0.1 0.6000000000012352 0  -0.1 0.5500000000014196 0  -0.1 0.500000000001539 0  -0.1 0.4500000000014195 0  -0.1 0.4000000000013 0  -0.1 0.3500000000011588 0  -0.1 0.3000000000010178 0  -0.1 0.2500000000008986 0  -0.1 0.2000000000007579 0  -0.1 0.1500000000006174 0  -0.1 0.1000000000005272 0  -0.1 0.05000000000040083 0  -0.1 2.671196597248127e-13 0  -0.1 -0.0499999999998666 0  -0.0500000000000906 -0.1 0  -1.730560139634463e-13 -0.1 0  0.04999999999975802 -0.1 0  0.09999999999961506 -0.1 0  0.1499999999994613 -0.1 0  0.199999999999302 -0.1 0  0.2499999999991446 -0.1 0  0.2999999999990088 -0.1 0  0.3499999999988296 -0.1 0  0.3999999999986936 -0.1 0  0.4499999999985143 -0.1 0  0.4999999999984002 -0.1 0  0.5499999999985247 -0.1 0  0.5999999999986493 -0.1 0  0.6499999999987955 -0.1 0  0.6999999999989417 -0.1 0  0.7499999999990659 -0.1 0  0.7999999999992116 -0.1 0  0.8499999999993573 -0.1 0  0.8999999999994526 -0.1 0  0.949999999999584 -0.1 0  0.9999999999997226 -0.1 0  1.049999999999861 -0.1 0  1.1 -0.0500000000000906 0  1.1 -1.730560139634463e-13 0  1.1 0.04999999999975802 0  1.1 0.09999999999961506 0  1.1 0.1499999999994613 0  1.1 0.199999999999302 0  1.1 0.2499999999991446 0  1.1 0.2999999999990088 0  1.1 0.3499999999988296 0  1.1 0.3999999999986936 0  1.1 0.4499999999985143 0  1.1 0.4999999999984002 0  1.1 0.5499999999985247 0  1.1 0.5999999999986493 0  1.1 0.6499999999987955 0  1.1 0.6999999999989417 0  1.1 0.7499999999990659 0  1.1 0.7999999999992116 0  1.1 0.8499999999993573 0  1.1 0.8999999999994526 0  1.1 0.949999999999584 0  1.1 0.9999999999997226 0  1.1 1.049999999999861 0  1.05000000000004 1.1 0  1.000000000000079 1.1 0  0.9500000000001624 1.1 0  0.9000000000003032 1.1 0  0.850000000000444 1.1 0  0.8000000000005848 1.1 0  0.7500000000007256 1.1 0  0.7000000000008665 1.1 0  0.6500000000010508 1.1 0  0.6000000000012352 1.1 0  0.5500000000014196 1.1 0  0.500000000001539 1.1 0  0.4500000000014195 1.1 0  0.4000000000013 1.1 0  0.3500000000011588 1.1 0  0.3000000000010178 1.1 0  0.2500000000008986 1.1 0  0.2000000000007579 1.1 0  0.1500000000006174 1.1 0  0.1000000000005272 1.1 0  0.05000000000040083 1.1 0  2.671196597248127e-13 1.1 0  -0.0499999999998666 1.1 0  0.2534653787954079 0.5657312737277405 0  0.2623324477810799 0.589116113200893 0  0.274164060217535 0.6111603622600039 0  0.288186878371442 0.6318831484784749 0  0.3047117122193908 0.6506529469265735 0  0.3233473174817644 0.6673576222144963 0  0.3433013754922579 0.6824586193654416 0  0.3644618671417344 0.6958315643378172 0  0.3866442038947279 0.7074328867627657 0  0.4096911613709733 0.7172044593513991 0  0.4334526311377643 0.7250646593334126 0  0.4577706829647025 0.7310195439528211 0  0.4824481170777484 0.7352352890923943 0  0.5074148875975372 0.7371228449364099 0  0.5324378454768374 0.7364571296596715 0  0.5572312297925942 0.7329600319599956 0  0.5814478846659663 0.7266138930260235 0  0.6048001604892544 0.7175789431378827 0  0.6270325821542643 0.7060713469349595 0  0.6478091874939029 0.6921028505375389 0  0.6668777399141637 0.6758763926826754 0  0.6841661106504632 0.6577742242764797 0  0.6992496609576054 0.6377934950995947 0  0.7119038602934672 0.6161927743920983 0  0.7220282489524594 0.5932944657036224 0  0.7297124975252961 0.5694681675638714 0  0.7348816857174099 0.5449724277761807 0  0.7370122589022284 0.5200289085003544 0  0.7365495580325002 0.4950000205154072 0  0.733744818138545 0.4701170380724068 0  0.728938447134718 0.4455473410229269 0  0.7220456594845932 0.4214891875498593 0  0.7131254507030333 0.3981000086118749 0  0.7025822643018778 0.3753947130074355 0  0.6900582184817853 0.3537259359612027 0  0.6755667735631646 0.3333168467199739 0  0.6595372916452387 0.3140929238410224 0  0.6415252757076533 0.296735384131286 0  0.6215550504556778 0.2816606400634974 0  0.5997850021986147 0.2693294788458755 0  0.5769249080996225 0.259142580642561 0  0.553119586546449 0.251483427705369 0  0.528353725141286 0.2480321821716323 0  0.5033451283736603 0.2482829922715631 0  0.4786046396693409 0.2519713745594276 0  0.4544524762168826 0.2584945501995614 0  0.4310332467428354 0.2672997228491126 0  0.4084840062686143 0.278143551139188 0  0.3868881264884902 0.290777293890101 0  0.3664037564969518 0.3051425220059491 0  0.3471606982960541 0.3211335393762412 0  0.3292681926384522 0.3386186837991309 0  0.3127115582866824 0.3573758702598585 0  0.2975750508375423 0.377290821766767 0  0.2839249881134429 0.3982584688574819 0  0.2719070119130364 0.4202009132788527 0  0.2619310652359659 0.4431403490348895 0  0.2542881357179629 0.466963073096093 0  0.249103913080451 0.4914367565694311 0  0.2468957269584049 0.5163506021279942 0  0.2718243564624855 0.5488012737317541 0  0.2787278453031196 0.4617224303680864 0  0.3126812103580545 0.6269292283058788 0  0.5368685123199644 0.269077731852991 0  0.4505875795535493 0.2825159668969668 0  0.6183766554733241 0.3067509320449863 0  0.3888006121927239 0.3152750200478901 0  0.3374887316611206 0.3620709256096831 0  0.6602472034815224 0.6515395022351863 0  0.5837101857503497 0.7022133211095311 0  0.4964653062594398 0.7141318635335627 0  0.7053829020154595 0.5764982788759415 0  0.7155081892728858 0.4858697595615198 0  0.4259432440140591 0.7007621809687886 0  0.6973943275576922 0.4175952947760767 0  0.3637282204666416 0.6718230049200485 0  0.6691829895342551 0.3535810079319071 0  0.3091602504431248 0.3997980894716059 0  0.6243286082881461 0.6816374534611813 0  0.5412705250602022 0.7112085959780715 0  0.7148337948714919 0.5319711678070886 0  0.6867621375396251 0.6181910052678727 0  0.5807919046314614 0.2868608217460948 0  0.2861630348584442 0.5913431704841184 0  0.4942195559494399 0.2715333560853745 0  0.2690520453042359 0.5048943793159574 0  0.6885876589129533 0.3946119130688256 0  0.6722132957848658 0.4127857617031297 0  0.6814180221644395 0.4370772517586632 0  0.6554055447497592 0.4316811513257169 0  0.6660573794295616 0.4580330632727608 0  0.6433311670468966 0.4538211959097986 0  0.6238910467219891 0.4302377853649587 0  0.6484695571604917 0.4792779687345707 0  0.6167916990556819 0.4736309427941675 0  0.6334888657702599 0.5089629690801694 0  0.5853927698331907 0.4428759052138905 0  0.5996340153768421 0.3972144562173587 0  0.5551930643806725 0.4136095687144476 0  0.5669195491039578 0.3688756214831691 0  0.5215987864885782 0.3869383530771365 0  0.5316408211946752 0.3396743206148869 0  0.4893049225978244 0.3549283330523423 0  0.483087998503232 0.3996993569264204 0  0.4495429891554951 0.3700739850037659 0  0.4428204757982373 0.4124272889916266 0  0.4187808204976701 0.3866879939284245 0  0.4039556234271314 0.418985099833338 0  0.5973254946962494 0.3649094564392846 0  0.5016114644607198 0.3240056485067503 0  0.6684713920848484 0.5149631404032361 0  0.6444225484709379 0.5430174885175083 0  0.6063556024399307 0.5431256398561553 0  0.6283502683516449 0.5829340413710195 0  0.5829254771621531 0.5773054056611948 0  0.5987061565247475 0.6134064026805283 0  0.5608520545942253 0.6166411573085432 0  0.5835246787145021 0.64306094868093 0  0.5384495053704027 0.6463172816812056 0  0.5223882020547252 0.6097884622682883 0  0.4946902381961249 0.6452542781223336 0  0.4810119843674698 0.6072339253361776 0  0.4640367980484058 0.6330816499612764 0  0.4415704642743082 0.6104844451869708 0  0.421620904094985 0.6321703629398352 0  0.3974301335366249 0.6112458636213043 0  0.4211017858484764 0.5724582259468899 0  0.3759545665083273 0.573936508019293 0  0.3999633269299808 0.5366827069087022 0  0.3561545335825917 0.5402056987436348 0  0.3791461071482187 0.5030160611320688 0  0.337445725
[...]
<PointData  Scalars="v"> 
<DataArray  type="Float64"  Name="v"  format="ascii">0.0000000000000000e+00  0.0000000000000000e+00  0.0000000000000000e+00  0.0000000000000000e+00  0.0000000000000000e+00  0.0000000000000000e+00  0.0000000000000000e+00  0.0000000000000000e+00  1.5608352639337141e-04  1.4532914862553205e-04  0.0000000000000000e+00  0.0000000000000000e+00  0.0000000000000000e+00  0.0000000000000000e+00  0.0000000000000000e+00  0.0000000000000000e+00  0.0000000000000000e+00  0.0000000000000000e+00  0.0000000000000000e+00  0.0000000000000000e+00  0.0000000000000000e+00  0.0000000000000000e+00  0.0000000000000000e+00  0.0000000000000000e+00  0.0000000000000000e+00  0.0000000000000000e+00  0.0000000000000000e+00  0.0000000000000000e+00  0.0000000000000000e+00  0.0000000000000000e+00  0.0000000000000000e+00  0.0000000000000000e+00  0.0000000000000000e+00  0.0000000000000000e+00  0.0000000000000000e+00  0.0000000000000000e+00  0.0000000000000000e+00  0.0000000000000000e+00  0.0000000000000000e+00  0.0000000000000000e+00  0.0000000000000000e+00  0.0000000000000000e+00  0.0000000000000000e+00  0.0000000000000000e+00  0.0000000000000000e+00  0.0000000000000000e+00  0.0000000000000000e+00  0.0000000000000000e+00  0.0000000000000000e+00  0.0000000000000000e+00  0.0000000000000000e+00  0.0000000000000000e+00  0.0000000000000000e+00  0.0000000000000000e+00  0.0000000000000000e+00  0.0000000000000000e+00  0.0000000000000000e+00  0.0000000000000000e+00  0.0000000000000000e+00  0.0000000000000000e+00  0.0000000000000000e+00  0.0000000000000000e+00  0.0000000000000000e+00  0.0000000000000000e+00  0.0000000000000000e+00  0.0000000000000000e+00  0.0000000000000000e+00  0.0000000000000000e+00  0.0000000000000000e+00  0.0000000000000000e+00  0.0000000000000000e+00  0.0000000000000000e+00  0.0000000000000000e+00  0.0000000000000000e+00  0.0000000000000000e+00  0.0000000000000000e+00  0.0000000000000000e+00  0.0000000000000000e+00  0.0000000000000000e+00  0.0000000000000000e+00  0.0000000000000000e+00  0.0000000000000000e+00  0.0000000000000000e+00  0.0000000000000000e+00  0.0000000000000000e+00  0.0000000000000000e+00  0.0000000000000000e+00  0.0000000000000000e+00  0.0000000000000000e+00  0.0000000000000000e+00  0.0000000000000000e+00  0.0000000000000000e+00  0.0000000000000000e+00  0.0000000000000000e+00  0.0000000000000000e+00  0.0000000000000000e+00  0.0000000000000000e+00  0.0000000000000000e+00  0.0000000000000000e+00  0.0000000000000000e+00  0.0000000000000000e+00  0.0000000000000000e+00  0.0000000000000000e+00  0.0000000000000000e+00  0.0000000000000000e+00  0.0000000000000000e+00  0.0000000000000000e+00  0.0000000000000000e+00  0.0000000000000000e+00  0.0000000000000000e+00  0.0000000000000000e+00  0.0000000000000000e+00  0.0000000000000000e+00  0.0000000000000000e+00  0.0000000000000000e+00  0.0000000000000000e+00  0.0000000000000000e+00  0.0000000000000000e+00  0.0000000000000000e+00  0.0000000000000000e+00  0.0000000000000000e+00  0.0000000000000000e+00  0.0000000000000000e+00  0.0000000000000000e+00  0.0000000000000000e+00  0.0000000000000000e+00  0.0000000000000000e+00  0.0000000000000000e+00  0.0000000000000000e+00  0.0000000000000000e+00  0.0000000000000000e+00  0.0000000000000000e+00  0.0000000000000000e+00  0.0000000000000000e+00  0.0000000000000000e+00  0.0000000000000000e+00  0.0000000000000000e+00  0.0000000000000000e+00  0.0000000000000000e+00  0.0000000000000000e+00  0.0000000000000000e+00  0.0000000000000000e+00  0.0000000000000000e+00  0.0000000000000000e+00  0.0000000000000000e+00  0.0000000000000000e+00  0.0000000000000000e+00  0.0000000000000000e+00  0.0000000000000000e+00  0.0000000000000000e+00  0.0000000000000000e+00  0.0000000000000000e+00  0.0000000000000000e+00  0.0000000000000000e+00  0.0000000000000000e+00  0.0000000000000000e+00  0.0000000000000000e+00  0.0000000000000000e+00  0.0000000000000000e+00  0.0000000000000000e+00  0.0000000000000000e+00  0.0000000000000000e+00  0.0000000000000000e+00  0.0000000000000000e+00  0.0000000000000000e+00  0.0000000000000000e+00  0.0000000000000000e+00  0.0000000000000000e+00  0.0000000000000000e+00  0.0000000000000000e+00  0.0000000000000000e+00  0.0000000000000000e+00  0.0000000000000000e+00  0.0000000000000000e+00  0.0000000000000000e+00  0.0000000000000000e+00  0.0000000000000000e+00  0.0000000000000000e+00  1.4556587876221749e-04  1.4616966393447611e-04  1.4702862850697360e-04  1.4793105727966608e-04  1.4894742732240519e-04  1.4992621931433816e-04  1.5087898779694449e-04  1.5159945061877901e-04  1.5221565993551295e-04  1.5261705971782614e-04  1.5288640078942414e-04  1.5308873429659091e-04  1.5311348502510208e-04  1.5316341789147793e-04  1.5314601074247343e-04  1.5314321074083966e-04  1.5319663311610959e-04  1.5323316355741174e-04  1.5326957544066155e-04  1.5333393133696026e-04  1.5332882973112037e-04  1.5333721996738776e-04  1.5330482923670176e-04  1.5325568142714665e-04  1.5318493320924407e-04  1.5316991973892275e-04  1.5316536146986142e-04  1.5321241528928081e-04  1.5331316750506502e-04  1.5339781538357717e-04  1.5332182463178855e-04  1.5317082684575582e-04  1.5300639038175797e-04  1.5266310892001663e-04  1.5209587532714081e-04  1.5137667828583811e-04  1.5054747043131918e-04  1.4960088322784422e-04  1.4872916410277036e-04  1.4799127652412636e-04  1.4724435149912594e-04  1.4672563644152785e-04  1.4666904104840183e-04  1.4700352181487025e-04  1.4771459421333125e-04  1.4847775330142202e-04  1.4924384147470626e-04  1.5000052870079391e-04  1.5063553191565988e-04  1.5108439130941955e-04  1.5132093271608818e-04  1.5128643990540151e-04  1.5102067629862919e-04  1.5056249620131436e-04  1.4987898557027176e-04  1.4902017867709957e-04  1.4818980204584780e-04  1.4727484794869295e-04  1.4635331086001497e-04  1.4568416872676824e-04  1.4954340111070089e-04  1.5048938507108395e-04  1.5114245218876256e-04  1.5028109584499648e-04  1.5116932849780935e-04  1.5164115025962255e-04  1.5208411356901598e-04  1.5219981181471587e-04  1.5472432712460024e-04  1.5468858240158152e-04  1.5440915767982925e-04  1.5466539371363804e-04  1.5450195899363472e-04  1.5379367716978677e-04  1.5412578921467275e-04  1.5254728741835805e-04  1.5292894647967722e-04  1.5172328776863695e-04  1.5473422858045642e-04  1.5460889774995105e-04  1.5461416382942832e-04  1.5469616419810974e-04  1.5105310642158122e-04  1.4998267905567351e-04  1.5063351491907584e-04  1.4973735012311067e-04  1.5381861868670921e-04  1.5430244363973572e-04  1.5458949405590343e-04  1.5476325337900117e-04  1.5500425751303629e-04  1.5514865541920838e-04  1.5495702649264516e-04  1.5536285364328676e-04  1.5569195724146766e-04  1.5575349784024332e-04  1.5554018400400687e-04  1.5436717286677337e-04  1.5507698674667220e-04  1.5368608883021336e-04  1.5445530615886663e-04  1.5267913777271871e-04  1.5323566505222680e-04  1.5455450199932779e-04  1.5347903689883849e-04  1.5434103977894200e-04  1.5352116740526003e-04  1.5380209419452948e-04  1.5345535865072355e-04  1.5228503274166688e-04  1.5531726691560621e-04  1.5569123823297275e-04  1.5616945678847424e-04  1.5573901098469832e-04  1.5624977555585650e-04  1.5578204014111640e-04  1.5592939234303191e-04  1.5551789024110393e-04  1.5558505026623320e-04  1.5600420378629104e-04  1.5531617625069466e-04  1.5561242736758686e-04  1.5506366655572543e-04  1.5495794168373688e-04  1.5431424800912161e-04  1.5380422724347968e-04  1.5482303107662264e-04  1.5325592854676385e-04  1.5435276174123356e-04  1.5271023188346118e-04  1.5378491840821614e-04  1.5219342299141754e-04  1.5231426197856893e-04  1.5285781187400241e-04  1.5523562711706874e-04  1.5520932551447303e-04  1.5304713787185314e-04  1.5285465287729697e-04  1.5484078418018878e-04  1.5537221812878207e-04  1.5545089141981899e-04  1.5511121857715346e-04  1.5172076101431094e-04  1.5243274399118629e-04  1.5169723103999796e-04  1.5482135668634076e-04  1.5507314595594539e-04  1.5436168223915546e-04  1.5610937355930429e-04  1.5505525985096675e-04  1.5118986459842449e-04  1.5394570083147359e-04  1.5533331652990720e-04  1.5274393899683219e-04  1.5255902604595072e-04  1.5227996785949923e-04  1.5326746609664940e-04  1.5363690361732882e-04  1.5183375349020172e-04  1.5266076848017733e-04  1.5288753335051673e-04  1.5185434228185790e-04  1.5243782290314079e-04  1.5176468705202918e-04  1.5119526517323395e-04  1.5641171358359954e-04  1.5148396329379908e-04  1.5613380766366143e-04  1.5512518512916541e-04  1.5397546463031026e-04  1.5325114384736029e-04  1.5471286230785608e-04  1.5518881712264424e-04  1.5503142354712166e-04  1.5103658050369029e-04  1.5513580305116101e-04  1.5431542621499836e-04  1.5319539338348704e-04  1.5261659779736757e-04  1.5259600781264191e-04  1.5207741417115343e-04  1.5130519753375096e-04  1.5535614947712883e-04  1.5473299245502312e-04  1.5446354033558848e-04  1.5473738566709364e-04  1.5447564871855050e-04  1.5191192258433910e-04  1.5224729048871294e-04  1.5261411653550534e-04  1.5241938321332326e-04  1.5159200519391998e-04  1.5411171536470824e-04  1.5399423542889029e-04  1.5337121501981884e-04  1.5219140085705527e-04  1.5257819905978791e-04  1.5325584287202246e-04  1.5185141532898276e-04  1.5208443550935845e-04  1.5537217598003418e-04  1.5504777662947639e-04  1.5154131313125459e-04  1.5434340496022102e-04  1.5460115287003161e-04  1.5151778145027541e-04  1.5216605633674532e-04  1.5260591598044280e-04  1.5090848912818186e-04  1.5163379188951073e-04  1.5233038477525522e-04  1.5474575663010094e-04  1.5361099932171190e-04  1.5470535533717534e-04  1.5506535635975585e-04  1.5486796893885671e-04  1.5458612629922912e-04  1.4995702545415388e-04  1.5464056397188587e-04  1.5464402919122713e-04  1.5046201683521806e-04  1.5102046059384689e-04  1.5396390349909866e-04  1.5474733955135662e-04  1.5487916569173758e-04  1.5565267127960232e-04  1.4972675344124007e-04  1.5041539216311409e-04  1.5039634799074870e-04  1.5012504848254001e-04  1.5055298936374206e-04  1.5149053653302510e-04  1.5344829994809803e-04  1.5527106325638126e-04  1.4965974789349240e-04  1.5442364295593371e-04  1.5219983046757074e-04  1.5085025531919789e-04  1.5302923397448123e-04  1.5634305145618293e-04  1.5193167352723402e-04  1.5568245762242878e-04  1.5429336660192645e-04  1.5501633226754866e-04  1.5500226892256128e-04  1.5050855387047207e-04  1.5441195699679596e-04  1.5195014863238630e-04  1.5212077385349683e-04  1.5275899658659392e-04  1.5291747218595185e-04  1.5217658376716581e-04  1.5582118034237658e-04  1.5252468579837370e-04  1.5131946330818524e-04  1.5503091290153411e-04  1.5492275223057209e-04  1.5634607642812630e-04  1.5119684087838402e-04  1.5603609624801728e-04  1.5071512872062424e-04  1.5441492572907200e-04  1.5403824905973305e-04  1.5113469655626718e-04  1.5295576877201361e-04  1.5502999787669731e-04  1.5521326527440069e-04  1.5172341449169025e-04  1.5306675684289048e-04  1.5546505039521844e-04  1.5627206880328457e-04  1.5319191181278324e-04  1.5291503774562284e-04  1.5054879661163573e-04  1.5119832651907739e-04  1.5199182862936592e-04  1.5240189098238244e-04  1.5212519647123406e-04  1.5234547329382535e-04  1.5173668727250198e-04  1.5460860914281004e-04  1.5120990312721217e-04  1.5420091298778076e-04  1.5130113933130784e-04  1.5479577109041510e-04  1.5089632558619865e-04  1.5358587386504887e-04  1.5611261129534401e-04  1.5183036016178631e-04  1.5533183531754667e-04  1.5042843019436408e-04  1.5315919493263469e-04  1.5586509008868945e-04  1.5542116473051730e-04  1.5210043241204723e-04  1.5317556835762593e-04  1.5378642998080931e-04  1.5474206007700774e-04  1.5288375744105335e-04  1.5213019403307571e-04  1.5493057195253677e-04  1.5162419265131119e-04  1.5413456378881937e-04  1.4863748769572779e-04  1.4370878211206350e-04  1.4851201709531887e-04  1.4727689193231718e-04  1.4886036873076872e-04  1.4652905786100446e-04  1.5046156513194507e-04  1.4737166838605541e-04  1.4943947372827700e-04  1.4939257355941880e-04  1.4189295467849413e-04  1.3825560377222717e-04  1.3673616634892627e-04  1.3768068914866692e-04  1.6363144076504866e-05  1.4966319705560674e-04  1.9559420592387365e-05  1.7422699119616647e-05  1.5075758772709511e-04  1.9996454106255816e-05  1.7852364303333117e-05  1.8459552341633735e-05  1.7595100882504339e-05  1.4942285779215837e-04  1.6731303816022751e-05  1.4939245470889270e-04  1.4184495827814032e-04  1.3895242745477835e-04  1.4189442987381246e-04  1.3904199755896936e-04  1.4959422786464151e-04  2.9533482458519367e-05  2.4698106550480522e-05  2.6169379668440919e-05  2.2943200477210706e-05  2.6996375238934906e-05  2.4137119320033234e-05  2.8498321130239293e-05  2.1914630928623352e-05  2.4320934249069126e-05  3.2819145233455171e-05  2.5554351094094928e-05  2.5960234731481372e-05  9.7182971922910208e-06  8.6580751066889252e-06  1.0196230732423505e-05  1.1108687707752100e-05  9.4035679144247171e-06  9.2237892716254494e-06  1.0459819562046211e-05  1.0703930488633773e-05  1.3759990301784672e-04  1.2708387463420835e-04  1.2713669702871136e-04  1.1334738446769181e-04  1.1259694226893939e-04  1.1258788123457755e-04  9.6798884072384856e-05  9.9088726428198597e-05  7.9907843079172127e-05  8.0135013334565756e-05  9.7349183135608328e-05  7.9489868592616476e-05  9.5719387558163374e-05  7.7669880451071104e-05  9.3413514672638500e-05  7.5057543728436241e-05  8.9507536987396249e-05  7.1424715918175707e-05  8.3455179200635809e-05  6.5286995865877729e-05  7.5275020050430080e-05  9.3632126268975013e-05  8.3841648358335105e-05  1.0239341145384821e-04  8.7839544972824094e-05  6.4683673305263923e-05  1.0843639524098198e-04  9.3735656248513616e-05  1.1090116220239305e-04  9.4645234330980549e-05  1.1382361696183985e-04  7.6222713685511056e-05  9.3867431724762440e-05  1.1353478261240864e-04  9.1045847227360106e-05  1.0678272280705471e-04  1.0994189512814380e-04  1.1250059083905871e-04  5.5398433430059646e-05  8.2344577080572371e-05  1.2459617571786521e-04  8.3419178912678166e-05  9.9880919996070996e-05  6.1510315262590094e-05  1.2779534258982916e-04  1.2088327358378544e-04  1.1515541507876898e-04  9.3541916116078496e-05  1.1054876985803447e-04  8.5391794957505486e-05  9.8727246475510349e-05  7.4653385018871377e-05  8.8135474377031413e-05  1.1016879905163698e-04  9.9898501449287744e-05  7.7262068633469954e-05  8.8541531276260159e-05  6.5956560529877034e-05  7.5901536471956109e-05  9.9990788281434929e-05  8.3383625763109594e-05  1.0232202597856929e-04  8.7713094242291317e-05  1.0395192977451829e-04  8.9168813298950861e-05  1.0697802762165742e-04  8.8072743601922448e-05  1.0200999063040487e-04  7.3355534251720640e-05  8.3083208068722344e-05  9.6136359455424670e-05  7.5347177038775494e-05  8.7479903508753579e-05  6.9280146245921962e-05  1.0813085330076601e-04  9.8956292301103887e-05  1.2024811258454157e-04  1.2043367710132808e-04  1.1143149933989254e-04  1.1798744334652833e-04  8.7905689852010144e-05  9.6883462736888616e-05  6.2899579725617672e-05  5.3968939275300627e-05  1.2019561087781000e-04  7.2952337579247707e-05  8.1705709360133815e-05  1.0500172023781674e-04  9.0013307496153344e-05  1.1427829925601357e-04  9.6987054425115400e-05  1.1669112070011743e-04  1.0391614736938851e-04  7.9897839303056401e-05  8.4804446638224990e-05  1.0493881000745684e-04  8.8019556924751947e-05  1.0629149929099691e-04  8.9629110023113401e-05  1.0758530821609232e-04  8.8940400422880575e-05  1.0280332696577941e-04  8.5068944935791973e-05  9.7053520022959353e-05  7.8844367055857001e-05  8.9048031916902015e-05  7.0734677103721349e-05  7.8883968720160861e-05  7.2841837032370095e-05  6.0691852980355184e-05  5.3265951779126161e-05  9.6453481256755645e-05  8.5188232320659141e-05  6.8021550165282965e-05  7.2344555569064194e-05  8.9988398504812909e-05  7.4749379676859233e-05  5.4743697673366867e-05  1.1353331421091289e-04  9.6144467774020615e-05  7.7643545683680793e-05  4.4096064059296238e-05  9.7887380908703471e-05  7.8609208658181139e-05  3.7599200125492448e-05  9.6797435775509687e-05  7.8289719788791811e-05  9.5577513646263973e-05  7.7128375781606798e-05  9.6908900235670353e-05  7.3845332140321128e-05  9.0327103659444842e-05  7.0401419602313404e-05  8.8365107445779960e-05  6.0370756177294534e-05  6.6856551311449656e-05  8.4114825553447274e-05  1.0508751551457830e-04  9.9692799846012211e-05  7.9216463565818268e-05  9.3026200913007883e-05  7.2398264917746086e-05  8.4481661111713191e-05  1.0420807145181575e-04  9.4207306830565012e-05  7.4713522015874267e-05  8.2954564126536112e-05  6.4162935084512330e-05  7.0261760339778318e-05  8.8521490537010834e-05  7.3482135863196939e-05  9.0639476778367326e-05  7.3589148644057569e-05  8.9767628645062028e-05  5.2764882234721941e-05  1.0657012849944170e-04  1.0718455190009196e-04  8.6581611046362695e-05  1.0066655614441653e-04  1.1285458192441163e-04  8.0185071989883163e-05  9.3264748600988294e-05  6.6239433095246786e-05  5.7325603892558109e-05  1.1327883346665863e-04  1.2192486813481709e-04  1.2182928536779930e-04  1.0666886507680029e-04  8.6921326572938807e-05  1.2331651922094748e-04  5.5361936670531455e-05  1.3451885721942039e-04  1.1857168814013523e-04  5.4168083509805537e-05  1.0504777905541059e-04  4.7448448890758539e-05  1.3337138997121978e-04  1.2941169037725269e-04  5.8076931949796778e-05  1.2225537128838937e-04  1.2903184673904893e-04  4.4237338149801444e-05  1.2868079172479821e-04  5.5556026258867810e-05  1.2391850441106989e-04  1.2665411971673790e-04  1.1318854595591519e-04  7.2219351101602240e-05  5.8063514996518652e-05  5.1926894997332692e-05  6.0900207024917035e-05  5.9387343766852968e-05  1.2523152902983067e-04  1.1871361805636891e-04  1.2980644629178919e-04  1.3460256795822835e-04  1.3648890647865504e-04  1.3113798499473121e-04  3.0863400072371511e-05  2.9777611780226359e-05  2.3996640813990747e-05  6.3181193874769067e-05  1.3418923081201756e-04  1.4133581182024845e-04  1.1895152833283082e-04  6.1348984863895931e-05  5.4539452419434673e-05  8.2126320495181900e-05  1.1828607271848125e-04  1.1287334253537882e-04  6.3391748848776246e-05  1.3659009817823547e-04  1.4209848311782261e-04  1.1335821285169166e-04  1.1200044832457289e-04  1.3533820948565770e-04  1.4243114770980987e-04  1.1521955321192071e-04  1.1900645052149757e-04  1.2335805736727351e-04  1.3493043390305927e-04  1.3977433918168380e-04  5.8714441555009340e-05  4.5822606535096497e-05  1.4339926834155576e-04  6.6371826311971353e-05  1.2500059960334465e-04  1.3635060035894556e-04  1.2581120437046880e-04  1.3774454112273779e-04  4.2807061445664737e-05  1.4002894643542653e-04  3.5584875000503406e-05  3.8370428421964239e-05  1.2780832866003672e-04  3.9245595156253234e-05  4.1716933119777076e-05  3.6041641323483769e-05  4.6412400255918892e-05  6.4228166920077718e-05  5.0401560709621380e-05  1.3630373224157860e-04  1.4542554024120116e-04  1.4136860472647303e-04  2.5828852142004309e-05  2.8848864589614684e-05  3.7429102790293276e-05  3.4068368853179831e-05  4.1552209732172931e-05  5.1584058839906606e-05  3.2425648347097881e-05  4.3419049342349697e-05  1.3031161164340027e-04  1.3777827148220742e-04  1.2586335383430179e-04  1.2787183927849818e-04  1.4340067026714389e-04  1.3382862101095279e-04  1.3483333568211858e-04  1.3166861407174247e-04  1.3980620052256475e-04  1.4056159411754903e-04  1.3364967996632815e-04  1.3595979055203595e-04  1.2944096740804723e-04  1.2389265452459298e-04  1.1509821526824109e-04  1.3314660483671297e-04  1.3456994850155523e-04  1.4377955484017090e-04  1.2497262569459653e-04  1.3803488338059701e-04  1.2955485609114870e-04  1.4135918989784268e-04  4.7838496488520976e-05  1.4897227765391652e-04  1.4197647086078475e-04  1.4068134032062555e-04  1.3282051868627803e-04  1.3146517818468762e-04  1.1002553755972945e-04  3.1501317056515274e-05  1.4407442606288872e-04  1.3551221391745939e-04  1.0904034188504080e-04  1.3963772649672212e-04  1.2633160081975395e-04  1.3670562468753278e-04  1.3566807489899613e-04  1.3818242674292866e-04  1.4463173714412896e-04  1.4284174921175990e-04  1.3298082479400728e-04  1.4857335264689410e-04  1.4301486576495897e-04  1.4169281302753298e-04  1.4302902339892519e-04  1.4987230609294638e-04  1