<?xml version="1.0"?>
<VTKFile type="UnstructuredGrid"  version="0.1"  >
<UnstructuredGrid>
<Piece  NumberOfPoints="1235" NumberOfCells="2372">
<Points>
<DataArray  type="Float64"  NumberOfComponents="3"  format="ascii">0 0 0  0 1 0  1 1 0  1 0 0  1.1 -0.1 0  -0.1 -0.1 0  1.1 1.1 0  -0.1 1.1 0  0.5008788154418717 0.5011832340953969 0  0.2539909534697207 0.540462143403042 0  0 0.9499999999997918 0  0 0.8999999999995836 0  0 0.8499999999996529 0  0 0.7999999999999998 0  0 0.7500000000003466 0  0 0.7000000000006934 0  0 0.6500000000010401 0  0 0.6000000000013869 0  0 0.5500000000017335 0  0 0.5000000000020587 0  0 0.4500000000018723 0  0 0.4000000000016644 0  0 0.3500000000014564 0  0 0.3000000000012483 0  0 0.2500000000010403 0  0 0.2000000000008322 0  0 0.1500000000006241 0  0 0.100000000000416 0  0 0.05000000000020799 0  0.04999999999989965 0 0  0.09999999999981467 0 0  0.1499999999997036 0 0  0.1999999999995579 0 0  0.2499999999994121 0 0  0.2999999999992664 0 0  0.3499999999991206 0 0  0.3999999999989749 0 0  0.4499999999988292 0 0  0.4999999999986943 0 0  0.5499999999988151 0 0  0.5999999999989468 0 0  0.6499999999990784 0 0  0.69999999999921 0 0  0.7499999999993417 0 0  0.7999999999994734 0 0  0.8499999999996051 0 0  0.8999999999997368 0 0  0.9499999999998684 0 0  1 0.04999999999989965 0  1 0.09999999999981467 0  1 0.1499999999997036 0  1 0.1999999999995579 0  1 0.2499999999994121 0  1 0.2999999999992664 0  1 0.3499999999991206 0  1 0.3999999999989749 0  1 0.4499999999988292 0  1 0.4999999999986943 0  1 0.5499999999988151 0  1 0.5999999999989468 0  1 0.6499999999990784 0  1 0.69999999999921 0  1 0.7499999999993417 0  1 0.7999999999994734 0  1 0.8499999999996051 0  1 0.8999999999997368 0  1 0.9499999999998684 0  0.9499999999997918 1 0  0.8999999999995836 1 0  0.8499999999996529 1 0  0.7999999999999998 1 0  0.7500000000003466 1 0  0.7000000000006934 1 0  0.6500000000010401 1 0  0.6000000000013869 1 0  0.5500000000017335 1 0  0.5000000000020587 1 0  0.4500000000018723 1 0  0.4000000000016644 1 0  0.3500000000014564 1 0  0.3000000000012483 1 0  0.2500000000010403 1 0  0.2000000000008322 1 0  0.1500000000006241 1 0  0.100000000000416 1 0  0.05000000000020799 1 0  -0.1 1.05000000000004 0  -0.1 1.000000000000079 0  -0.1 0.9500000000001624 0  -0.1 0.9000000000003032 0  -0.1 0.850000000000444 0  -0.1 0.8000000000005848 0  -0.1 0.7500000000007256 0  -0.1 0.7000000000008665 0  -0.1 0.6500000000010508 0  -0.1 0.6000000000012352 0  -0.1 0.5500000000014196 0  -0.1 0.500000000001539 0  -0.1 0.4500000000014195 0  -0.1 0.4000000000013 0  -0.1 0.3500000000011588 0  -0.1 0.3000000000010178 0  -0.1 0.2500000000008986 0  -0.1 0.2000000000007579 0  -0.1 0.1500000000006174 0  -0.1 0.1000000000005272 0  -0.1 0.05000000000040083 0  -0.1 2.671196597248127e-13 0  -0.1 -0.0499999999998666 0  -0.0500000000000906 -0.1 0  -1.730560139634463e-13 -0.1 0  0.04999999999975802 -0.1 0  0.09999999999961506 -0.1 0  0.1499999999994613 -0.1 0  0.199999999999302 -0.1 0  0.2499999999991446 -0.1 0  0.2999999999990088 -0.1 0  0.3499999999988296 -0.1 0  0.3999999999986936 -0.1 0  0.4499999999985143 -0.1 0  0.4999999999984002 -0.1 0  0.5499999999985247 -0.1 0  0.5999999999986493 -0.1 0  0.6499999999987955 -0.1 0  0.6999999999989417 -0.1 0  0.7499999999990659 -0.1 0  0.7999999999992116 -0.1 0  0.8499999999993573 -0.1 0  0.8999999999994526 -0.1 0  0.949999999999584 -0.1 0  0.9999999999997226 -0.1 0  1.049999999999861 -0.1 0  1.1 -0.0500000000000906 0  1.1 -1.730560139634463e-13 0  1.1 0.04999999999975802 0  1.1 0.09999999999961506 0  1.1 0.1499999999994613 0  1.1 0.199999999999302 0  1.1 0.2499999999991446 0  1.1 0.2999999999990088 0  1.1 0.3499999999988296 0  1.1 0.3999999999986936 0  1.1 0.4499999999985143 0  1.1 0.4999999999984002 0  1.1 0.5499999999985247 0  1.1 0.5999999999986493 0  1.1 0.6499999999987955 0  1.1 0.6999999999989417 0  1.1 0.7499999999990659 0  1.1 0.7999999999992116 0  1.1 0.8499999999993573 0  1.1 0.8999999999994526 0  1.1 0.949999999999584 0  1.1 0.9999999999997226 0  1.1 1.049999999999861 0  1.05000000000004 1.1 0  1.000000000000079 1.1 0  0.9500000000001624 1.1 0  0.9000000000003032 1.1 0  0.850000000000444 1.1 0  0.8000000000005848 1.1 0  0.7500000000007256 1.1 0  0.7000000000008665 1.1 0  0.6500000000010508 1.1 0  0.6000000000012352 1.1 0  0.5500000000014196 1.1 0  0.500000000001539 1.1 0  0.4500000000014195 1.1 0  0.4000000000013 1.1 0  0.3500000000011588 1.1 0  0.3000000000010178 1.1 0  0.2500000000008986 1.1 0  0.2000000000007579 1.1 0  0.1500000000006174 1.1 0  0.1000000000005272 1.1 0  0.05000000000040083 1.1 0  2.671196597248127e-13 1.1 0  -0.0499999999998666 1.1 0  0.2594326365667603 0.5644390360457033 0  0.266980261025715 0.5878107958871951 0  0.2769728644976328 0.6106007921254382 0  0.2890608716412051 0.6325846012351595 0  0.3035888524229409 0.6531886733974464 0  0.3205542146242087 0.6723780695130582 0  0.3393864453786143 0.6898801708709746 0  0.3602620148400719 0.7053890720109616 0  0.382641120144926 0.718639868210889 0  0.4062381486308463 0.7295295183042428 0  0.4307144986493168 0.7378474512957645 0  0.4560606207236279 0.7434394302403925 0  0.4817536013657455 0.7465132905498504 0  0.5076389819385437 0.7468419750833568 0  0.5332721646254157 0.7445375823934346 0  0.5585366159237758 0.7395699088530131 0  0.5830296661300185 0.7320900759826964 0  0.6066828673352609 0.7221661763379379 0  0.6291151814210744 0.7099878656549061 0  0.6502040781539173 0.6955044172526148 0  0.6696211781598628 0.6789106073934535 0  0.6871523919797164 0.6605626613862446 0  0.7027134719384844 0.6403527844803943 0  0.7160884387487692 0.6186730913743026 0  0.7271645231991142 0.5956721290693776 0  0.7357784069894835 0.5717735286846133 0  0.7420007823076314 0.5470127450885567 0  0.7454975530652378 0.5216158346503381 0  0.7464439079757534 0.4960083089050248 0  0.7447627130029906 0.4701968551915917 0  0.740621432278918 0.4446610392578654 0  0.7337881652845528 0.4197675951705951 0  0.7241757847334249 0.3956267967966205 0  0.7121804652369373 0.3724712946164709 0  0.6978116064657842 0.3507675385281369 0  0.6812355846514178 0.330779551198276 0  0.6628737580227203 0.3124939006503503 0  0.6429882228711971 0.2965683539360237 0  0.6215899931312 0.2827727882197066 0  0.598988699386524 0.2715957939544155 0  0.5755582201395408 0.2626251903000881 0  0.551597487258912 0.255827013939065 0  0.5272490873714903 0.251952896929407 0  0.5025418397466132 0.2503331044036336 0  0.477628107721236 0.2512021317478025 0  0.4525382649910628 0.2546477682106713 0  0.4276842876007395 0.2606851156221336 0  0.4033774483499296 0.2693850030811639 0  0.3799391658061886 0.2806108829106408 0  0.3576720089638443 0.2942817078659669 0  0.336838777897121 0.3102136862490619 0  0.3177743008878705 0.3282147561760705 0  0.3007235737791756 0.3480927789065938 0  0.2860112790874075 0.3696095273661186 0  0.2737175331227867 0.3925695778918629 0  0.2639753938079612 0.4165087440003194 0  0.256923896968012 0.4411839570618011 0  0.2525404557562254 0.4662702477037122 0  0.2506380041685624 0.4912935668388541 0  0.251228083327208 0.5160429779550556 0  0.2765965086692921 0.5478565533240831 0  0.2761976943896569 0.459083081099708 0  0.3134008557468381 0.6293952190127829 0  0.5355486802135857 0.2723287146934885 0  0.4469905150614778 0.2784406665503115 0  0.6199063074546427 0.3076711304727873 0  0.381253087734268 0.3064695834588169 0  0.3274800578256116 0.3532888105196396 0  0.6629975489391932 0.6543749528848088 0  0.5850551760698851 0.7072696029359191 0  0.4958582881744933 0.7235973747227779 0  0.7106703887697993 0.5784292842616612 0  0.7248832842433313 0.486104756441648 0  0.423414570865016 0.7118618194496804 0  0.7074223421569634 0.416038010948474 0  0.3610371668225956 0.6797674991559371 0  0.6756985471174949 0.3517540548333618 0  0.3003427397639246 0.3931621839940081 0  0.6263457264036517 0.6853369381615709 0  0.5417828817760069 0.7182010773894228 0  0.7220471615795258 0.5332624654873993 0  0.6904878969820891 0.6205135530165745 0  0.5805318874715307 0.2894129679691954 0  0.2896618074610069 0.5913311784118397 0  0.4922454279892969 0.2720516468784404 0  0.2713740009658819 0.5035934718739106 0  0.697810652015469 0.3927221769117001 0  0.6805495367455493 0.4116762672068398 0  0.6902599330253467 0.4362029001310902 0  0.6627085958277844 0.4311619588993698 0  0.6736866714339954 0.4577021251206435 0  0.649768084196147 0.4537110440208812 0  0.6293738404880643 0.4302472953467223 0  0.6547686171112157 0.4794264531949901 0  0.6216976754718841 0.4740013562410362 0  0.6385426131066575 0.5096465553166251 0  0.5888654050850005 0.4432843183918235 0  0.6034510920951168 0.397598409712167 0  0.5568856989151865 0.4140127558465346 0  0.5684112559887123 0.3697390419739394 0  0.5211814717682165 0.3869432279978821 0  0.5308148474711898 0.3405544295447389 0  0.486754405028779 0.3539000715784311 0  0.4811945211991262 0.3984503142702779 0  0.4454541160714191 0.366914127044758 0  0.4397203613360307 0.4097121912736001 0  0.4138614126641101 0.3822173150624397 0  0.399850121001756 0.4148695099018939 0  0.6003034486344216 0.3656008389308476 0  0.4992523671704432 0.3239035868002904 0  0.67471832765583 0.5155749056025997 0  0.6490478126491055 0.5442118037230749 0  0.6097793872412265 0.5446103649434594 0  0.6316120629302376 0.5849508257509654 0  0.5851674427550971 0.579758074796088 0  0.6007747975404882 0.6164148909187628 0  0.5620754249874952 0.6204476810990107 0  0.5849361696179952 0.6470170206249255 0  0.5389200176565457 0.6515570515480832 0  0.5229805575082312 0.614160323980721 0  0.4944152375743586 0.6516721299033592 0  0.4811113957576359 0.6121612781720768 0  0.4635859450244548 0.6395139788532871 0  0.4414308153854096 0.6158445672470056 0  0.4209885712403758 0.6387564135647849 0  0.3974819743418447 0.6163186344244764 0  0.4214963679543247 0.5755766212409493 0  0.3769693991300915 0.5763656159921139 0  0.4003825312209602 0.5375475137601753 0  0.3574107519569103 0.5403616790092031 0  0.3788424331524722 0.5017596500226333 0  0.3379072682190212 
[...]
<PointData  Scalars="v"> 
<DataArray  type="Float64"  Name="v"  format="ascii">0.0000000000000000e+00  0.0000000000000000e+00  0.0000000000000000e+00  0.0000000000000000e+00  0.0000000000000000e+00  0.0000000000000000e+00  0.0000000000000000e+00  0.0000000000000000e+00  4.3684684391467378e-05  4.0669355720676032e-05  0.0000000000000000e+00  0.0000000000000000e+00  0.0000000000000000e+00  0.0000000000000000e+00  0.0000000000000000e+00  0.0000000000000000e+00  0.0000000000000000e+00  0.0000000000000000e+00  0.0000000000000000e+00  0.0000000000000000e+00  0.0000000000000000e+00  0.0000000000000000e+00  0.0000000000000000e+00  0.0000000000000000e+00  0.0000000000000000e+00  0.0000000000000000e+00  0.0000000000000000e+00  0.0000000000000000e+00  0.0000000000000000e+00  0.0000000000000000e+00  0.0000000000000000e+00  0.0000000000000000e+00  0.0000000000000000e+00  0.0000000000000000e+00  0.0000000000000000e+00  0.0000000000000000e+00  0.0000000000000000e+00  0.0000000000000000e+00  0.0000000000000000e+00  0.0000000000000000e+00  0.0000000000000000e+00  0.0000000000000000e+00  0.0000000000000000e+00  0.0000000000000000e+00  0.0000000000000000e+00  0.0000000000000000e+00  0.0000000000000000e+00  0.0000000000000000e+00  0.0000000000000000e+00  0.0000000000000000e+00  0.0000000000000000e+00  0.0000000000000000e+00  0.0000000000000000e+00  0.0000000000000000e+00  0.0000000000000000e+00  0.0000000000000000e+00  0.0000000000000000e+00  0.0000000000000000e+00  0.0000000000000000e+00  0.0000000000000000e+00  0.0000000000000000e+00  0.0000000000000000e+00  0.0000000000000000e+00  0.0000000000000000e+00  0.0000000000000000e+00  0.0000000000000000e+00  0.0000000000000000e+00  0.0000000000000000e+00  0.0000000000000000e+00  0.0000000000000000e+00  0.0000000000000000e+00  0.0000000000000000e+00  0.0000000000000000e+00  0.0000000000000000e+00  0.0000000000000000e+00  0.0000000000000000e+00  0.0000000000000000e+00  0.0000000000000000e+00  0.0000000000000000e+00  0.0000000000000000e+00  0.0000000000000000e+00  0.0000000000000000e+00  0.0000000000000000e+00  0.0000000000000000e+00  0.0000000000000000e+00  0.0000000000000000e+00  0.0000000000000000e+00  0.0000000000000000e+00  0.0000000000000000e+00  0.0000000000000000e+00  0.0000000000000000e+00  0.0000000000000000e+00  0.0000000000000000e+00  0.0000000000000000e+00  0.0000000000000000e+00  0.0000000000000000e+00  0.0000000000000000e+00  0.0000000000000000e+00  0.0000000000000000e+00  0.0000000000000000e+00  0.0000000000000000e+00  0.0000000000000000e+00  0.0000000000000000e+00  0.0000000000000000e+00  0.0000000000000000e+00  0.0000000000000000e+00  0.0000000000000000e+00  0.0000000000000000e+00  0.0000000000000000e+00  0.0000000000000000e+00  0.0000000000000000e+00  0.0000000000000000e+00  0.0000000000000000e+00  0.0000000000000000e+00  0.0000000000000000e+00  0.0000000000000000e+00  0.0000000000000000e+00  0.0000000000000000e+00  0.0000000000000000e+00  0.0000000000000000e+00  0.0000000000000000e+00  0.0000000000000000e+00  0.0000000000000000e+00  0.0000000000000000e+00  0.0000000000000000e+00  0.0000000000000000e+00  0.0000000000000000e+00  0.0000000000000000e+00  0.0000000000000000e+00  0.0000000000000000e+00  0.0000000000000000e+00  0.0000000000000000e+00  0.0000000000000000e+00  0.0000000000000000e+00  0.0000000000000000e+00  0.0000000000000000e+00  0.0000000000000000e+00  0.0000000000000000e+00  0.0000000000000000e+00  0.0000000000000000e+00  0.0000000000000000e+00  0.0000000000000000e+00  0.0000000000000000e+00  0.0000000000000000e+00  0.0000000000000000e+00  0.0000000000000000e+00  0.0000000000000000e+00  0.0000000000000000e+00  0.0000000000000000e+00  0.0000000000000000e+00  0.0000000000000000e+00  0.0000000000000000e+00  0.0000000000000000e+00  0.0000000000000000e+00  0.0000000000000000e+00  0.0000000000000000e+00  0.0000000000000000e+00  0.0000000000000000e+00  0.0000000000000000e+00  0.0000000000000000e+00  0.0000000000000000e+00  0.0000000000000000e+00  0.0000000000000000e+00  0.0000000000000000e+00  0.0000000000000000e+00  0.0000000000000000e+00  0.0000000000000000e+00  0.0000000000000000e+00  0.0000000000000000e+00  0.0000000000000000e+00  0.0000000000000000e+00  0.0000000000000000e+00  0.0000000000000000e+00  0.0000000000000000e+00  0.0000000000000000e+00  0.0000000000000000e+00  0.0000000000000000e+00  0.0000000000000000e+00  4.0835644106683623e-05  4.1004672636039988e-05  4.1181398089987181e-05  4.1334355145014397e-05  4.1503583043113340e-05  4.1670188580526512e-05  4.1837856248815977e-05  4.1976786329969304e-05  4.2118026656081895e-05  4.2243964437747439e-05  4.2393771178760498e-05  4.2568834122246368e-05  4.2769890210133199e-05  4.2980637188877865e-05  4.3157201239342356e-05  4.3341154094852374e-05  4.3476140717068696e-05  4.3612488151301338e-05  4.3703250296592878e-05  4.3752660526235166e-05  4.3772940287182636e-05  4.3766888693731385e-05  4.3724091428030176e-05  4.3661744759002476e-05  4.3563886775430968e-05  4.3461669674061318e-05  4.3361627064174017e-05  4.3285437204810797e-05  4.3237316193264544e-05  4.3207851241478213e-05  4.3176257327166778e-05  4.3170633684771297e-05  4.3144573748033938e-05  4.3109155865679809e-05  4.3022520465957139e-05  4.2870703766187282e-05  4.2701431042485867e-05  4.2471581360731230e-05  4.2221585961244174e-05  4.1978576743046106e-05  4.1697838766822115e-05  4.1430059353994560e-05  4.1184176174281209e-05  4.0965440552253198e-05  4.0790033498961127e-05  4.0629017433509091e-05  4.0525709178288531e-05  4.0444912963957412e-05  4.0383308688559722e-05  4.0332246266172120e-05  4.0275832116232191e-05  4.0218509267205914e-05  4.0152950295387626e-05  4.0150148205988477e-05  4.0165914426900627e-05  4.0188001884197045e-05  4.0275382769027367e-05  4.0352737968440042e-05  4.0430919619130010e-05  4.0545161596178122e-05  4.1635269587761610e-05  4.1328449360134743e-05  4.2152186161053992e-05  4.2024319665232221e-05  4.1540500836155567e-05  4.2765437547901971e-05  4.1348441183421723e-05  4.1251892790178553e-05  4.3930986278393348e-05  4.3752954555778324e-05  4.3326925548827018e-05  4.3817059451880922e-05  4.3599940485866886e-05  4.2897419850849419e-05  4.3464752796015543e-05  4.2484253520856843e-05  4.3171715017850494e-05  4.1250563222405502e-05  4.3888820760292715e-05  4.3582463517754808e-05  4.3711397335782144e-05  4.3905068477569136e-05  4.2471830871511147e-05  4.1844624867714247e-05  4.1788332998463182e-05  4.1442661424629213e-05  4.3388072384560570e-05  4.3509645019527136e-05  4.3592830746670056e-05  4.3625221151081514e-05  4.3707067365434222e-05  4.3733054522970919e-05  4.3645563870675426e-05  4.3819049931411865e-05  4.3864090689192123e-05  4.3938679508377001e-05  4.3703629090425421e-05  4.3430098909255477e-05  4.3438483664997857e-05  4.3119125295149695e-05  4.3075261447271374e-05  4.2631138721292814e-05  4.2497800538953666e-05  4.2922209466817101e-05  4.2298148402174684e-05  4.2662730203878787e-05  4.2186607101577241e-05  4.2331288108855781e-05  4.3168339607806453e-05  4.2300745795726708e-05  4.3870382061937966e-05  4.3995420996749236e-05  4.4052653119924237e-05  4.4070127130062333e-05  4.4083159472587098e-05  4.4054245043696396e-05  4.3993137515083471e-05  4.3964893379074319e-05  4.3863636405621137e-05  4.3882951273637157e-05  4.3602766765156387e-05  4.3640314808461182e-05  4.3433340648013231e-05  4.3357771085558345e-05  4.3117589230001326e-05  4.2932794838278645e-05  4.3237938943299704e-05  4.2717558114175160e-05  4.2979091830013608e-05  4.2470261580587572e-05  4.2662936029039752e-05  4.2171816054540925e-05  4.2428303108185897e-05  4.2134320166653504e-05  4.3905511415126014e-05  4.3825438798826994e-05  4.1878382519298620e-05  4.1710795573059754e-05  4.3060982009668546e-05  4.4002755133889802e-05  4.4034595911598189e-05  4.3929920848484073e-05  4.1785007671428231e-05  4.1808514618355400e-05  4.1602368002372552e-05  4.3414974803015409e-05  4.3601622568117710e-05  4.3141823773611918e-05  4.3885390111350420e-05  4.3762062464488658e-05  4.1804062989239043e-05  4.3417048326857606e-05  4.4003673373361227e-05  4.1829642215770014e-05  4.2062447868042720e-05  4.1762735650374335e-05  4.2754605276930828e-05  4.2859420055880905e-05  4.2404271470762498e-05  4.2840496808957502e-05  4.2637927576023131e-05  4.2340446556367443e-05  4.2899445882060180e-05  4.2166054190094939e-05  4.2110832094418286e-05  4.4017734770931459e-05  4.2129773218744338e-05  4.3820685308924657e-05  4.3990785176807541e-05  4.3375279383928892e-05  4.3187536695762598e-05  4.3646765181578298e-05  4.3158815111516148e-05  4.3816677141796209e-05  4.1613918302962585e-05  4.3993571530420325e-05  4.3516472474120362e-05  4.2090274890882672e-05  4.1726810162433336e-05  4.1576656343500054e-05  4.1533093395936937e-05  4.1255932780422344e-05  4.3368765995423438e-05  4.3437587106203915e-05  4.3261541959479313e-05  4.3515181671696776e-05  4.3217889062542157e-05  4.1180158038514352e-05  4.1226658201912314e-05  4.3058410294631861e-05  4.2991716778703796e-05  4.2668206436300588e-05  4.3068020852638662e-05  4.2562844679110372e-05  4.2714279487782647e-05  4.1261776650405009e-05  4.1597107322054050e-05  4.2709779072647256e-05  4.1410958486762912e-05  4.2373513935689405e-05  4.3981009710891662e-05  4.3932140654882149e-05  4.1491975026718462e-05  4.3494053157262724e-05  4.3667103932795374e-05  4.2238787090236931e-05  4.2426072459153305e-05  4.1515124643950344e-05  4.1687428202844557e-05  4.1868517586124737e-05  4.1583103823873305e-05  4.3921276241128742e-05  4.3314624157113444e-05  4.3870316322619884e-05  4.3704896400796839e-05  4.3730309878151347e-05  4.3826111890248562e-05  4.1346221405974433e-05  4.3898661803940140e-05  4.3772603721329453e-05  4.1976472344378345e-05  4.2108978621244009e-05  4.2968880577958037e-05  4.2878790322476698e-05  4.3737437639395621e-05  4.3579471566932900e-05  4.1750676219265863e-05  4.1886390785649512e-05  4.1787018698882230e-05  4.1852237271098953e-05  4.2214052064516231e-05  4.2455908296039502e-05  4.3299574233127343e-05  4.3349095261952821e-05  4.1555851670174229e-05  4.3555712411003954e-05  4.1452241681618066e-05  4.1284776805408396e-05  4.1888273691335352e-05  4.3992355119060238e-05  4.1814691250255993e-05  4.3415820273818349e-05  4.3397269593651085e-05  4.3887097648148934e-05  4.3821698279664288e-05  4.1590068184447949e-05  4.3644341304390292e-05  4.2664981743175683e-05  4.2605658569157442e-05  4.2587208568093302e-05  4.2649307003758933e-05  4.2437485811120926e-05  4.3681368217202271e-05  4.1462996591470396e-05  4.1910727043331575e-05  4.3958322604329997e-05  4.3826558315673699e-05  4.3878803391268322e-05  4.2275907881980285e-05  4.3684314762655607e-05  4.2508804170727628e-05  4.3488864811668181e-05  4.3079007881972526e-05  4.1519920728172429e-05  4.3000000368001726e-05  4.3953575768377438e-05  4.3882528620611014e-05  4.2852760037448778e-05  4.3098610886876993e-05  4.3897285332124183e-05  4.3854049906489156e-05  4.2709771740256255e-05  4.2011085085725434e-05  4.1713528751915989e-05  4.1944990390433574e-05  4.2077628934424354e-05  4.2177699452116743e-05  4.2016337196261316e-05  4.2469657604120141e-05  4.2284718263591931e-05  4.3241763551133834e-05  4.2048812879003368e-05  4.3073803096926227e-05  4.2195551563880166e-05  4.3341611157387729e-05  4.2107739999631818e-05  4.3248084682646153e-05  4.3981239285212648e-05  4.2255350015852139e-05  4.3838068324891720e-05  4.1934100280481654e-05  4.2046643533897981e-05  4.3591054308781257e-05  4.4025169149855133e-05  4.2374317901596965e-05  4.1934243875717528e-05  4.2925716584148464e-05  4.3668573227451979e-05  4.1732195658559578e-05  4.1802347784034079e-05  4.3852220897087209e-05  4.2282550367057747e-05  4.3046654150903104e-05  3.8204619084730863e-05  3.9845920905163035e-05  4.2871734133922304e-05  4.2083367829085153e-05  4.0745360790394322e-05  3.8026626715317220e-05  4.2518848971535936e-05  3.8837990718528138e-05  4.3034940489296110e-05  4.2844834152901515e-05  4.0878559542002959e-05  3.9013477625302719e-05  3.8554122128961347e-05  3.8110527221763689e-05  2.3554578239256551e-06  4.1131929703727005e-05  3.3412612521580768e-06  4.2702311405698017e-06  4.2398155899225674e-05  5.3358313689698206e-06  5.0683498716671227e-06  4.7520809130244982e-06  5.4719131694203247e-06  4.2329611351456344e-05  3.9941899082144713e-06  4.2259549470730380e-05  3.8623751094975189e-05  3.8993917902241619e-05  3.8249094177889539e-05  3.9889017492316091e-05  4.1758239464474558e-05  8.0314955690958541e-06  6.6773381554556258e-06  6.6631801370210761e-06  5.2515456128638325e-06  7.0734160947044553e-06  4.4687078453158845e-06  7.2123928970537313e-06  5.8256691465276588e-06  7.7017073057684181e-06  8.6816410602796050e-06  6.9149889314059020e-06  5.9486532401369586e-06  2.5458307618796873e-06  1.9615854055505086e-06  1.3864204271508952e-06  3.3105549478007814e-06  2.1367515084424670e-06  1.2472759796241927e-06  2.9987703489687503e-06  2.6511244098021125e-06  3.9175926936010333e-05  3.6091557316037257e-05  3.5483627250215099e-05  3.2050351938989385e-05  3.2557624363962828e-05  3.1045537038977442e-05  2.7840281984488898e-05  2.9341610527890101e-05  2.3409387296489844e-05  2.4212053489201673e-05  2.9475309572859604e-05  2.4507709406854645e-05  2.9420415925230803e-05  2.4219893563833996e-05  2.8926339426725513e-05  2.3491385652812442e-05  2.7744679532689264e-05  2.2329280566490246e-05  2.5809722636849183e-05  2.0354335456904969e-05  2.3156611626392992e-05  2.8529377289019272e-05  2.5377774029750171e-05  3.0688514216729454e-05  2.6089746412040323e-05  1.9781876045970591e-05  3.1888765330347487e-05  2.7229809471637851e-05  3.1974373882552525e-05  2.6979849007627369e-05  3.2312294905063584e-05  2.1874057945869529e-05  2.6333483914784600e-05  3.1755702250705358e-05  2.5190636582530725e-05  2.9487104161947318e-05  3.3509355682285905e-05  3.3814866163774885e-05  1.7495603458313330e-05  2.3088381218331865e-05  3.6094395314693493e-05  2.2647301457450848e-05  2.7155201587017254e-05  1.7664244268864178e-05  3.6084147203733546e-05  3.3537670020396920e-05  3.1696824288227989e-05  2.5149361967083029e-05  3.0393346240855724e-05  2.2778108406673976e-05  2.6978473558856826e-05  1.9887000593945436e-05  2.4145018813106248e-05  3.0831448279436050e-05  2.8065701246153674e-05  2.1225650021169707e-05  2.4930133689771883e-05  1.8123048334646953e-05  2.1314335994598981e-05  2.8799395103850543e-05  2.3839131011037702e-05  2.9727439342004039e-05  2.5268335219291337e-05  3.0228489618746736e-05  2.5646152499222717e-05  3.1091999971332217e-05  2.5276395227090486e-05  2.9577587294204396e-05  2.0820949045693799e-05  2.3739261037814998e-05  2.7755821657083664e-05  2.1377237482572824e-05  2.5076658568916521e-05  1.9637015077123420e-05  3.1404593044035002e-05  2.8506789954897605e-05  3.5154256888619706e-05  3.4982393493953565e-05  3.1946298181596570e-05  3.4425511879713370e-05  2.5022431305496166e-05  2.7318224556375598e-05  1.7601783534446854e-05  1.4972134680505789e-05  3.4295556074661574e-05  2.0426941979171332e-05  2.2528731284402959e-05  2.9167351400892682e-05  2.4408230672847347e-05  3.1380851697019945e-05  2.5940951260497197e-05  3.1593015104264838e-05  2.7533723182894075e-05  2.0981333264714431e-05  2.2070389584287797e-05  2.7523959753099393e-05  2.2771614718219526e-05  2.7759834262869056e-05  2.3123265869693566e-05  2.8109531541823118e-05  2.2950660610257935e-05  2.6872736306209342e-05  2.1931304461287477e-05  2.5382328137916387e-05  2.0231442425770607e-05  2.3233298942604323e-05  1.8010825561137449e-05  2.0488843731145644e-05  1.8644523907610142e-05  1.5269293048361272e-05  1.3191941564092564e-05  2.5766373764707569e-05  2.2724962518705778e-05  1.7530510323043108e-05  1.9209739567701143e-05  2.4660704805739813e-05  2.0338288997386359e-05  1.4385638341548381e-05  3.0192666893961287e-05  2.6877474772038104e-05  2.1414762983510538e-05  1.0788951253925157e-05  2.7545762141001705e-05  2.1657318959614610e-05  8.9575961913126821e-06  2.7051945317576895e-05  2.1241465225483549e-05  2.6270255168750378e-05  2.0440669008917767e-05  2.5970001625407207e-05  1.8853417261333494e-05  2.3038769684431104e-05  1.7008254346255402e-05  2.1309924813174845e-05  1.5919180672578970e-05  1.5013947192049480e-05  1.8890444296490387e-05  2.5336966207909623e-05  2.2443973074817600e-05  1.6411822119785920e-05  1.9403647772595960e-05  1.3761586565157483e-05  1.6330574870107268e-05  2.2063811480295867e-05  1.8725541649631073e-05  1.3511727992771481e-05  1.5631811816111791e-05  1.1077320028537844e-05  1.2700486949574530e-05  1.7417525044666591e-05  1.3944968959803348e-05  1.8577845634016158e-05  1.4617806401988903e-05  1.9123245153693908e-05  8.7182749288060956e-06  2.3490144468552905e-05  2.4602823626228138e-05  1.9124393856443084e-05  2.3646303007010813e-05  2.4413243092215569e-05  1.8292591118280105e-05  2.2491191761733912e-05  1.4287652706262488e-05  1.0550093055942828e-05  2.8073884120656542e-05  2.8595419600710853e-05  2.7927693148175988e-05  2.7008418193498276e-05  2.1628320833813401e-05  3.2695263637488621e-05  9.1486266007898327e-06  3.2575407940583351e-05  2.8757751251965593e-05  1.4808979423901424e-05  2.9229347024994445e-05  1.1868611720081523e-05  3.7337556179468378e-05  3.6794501254276496e-05  1.5085274693946333e-05  2.7941922293608790e-05  2.9908392485844402e-05  1.0734977015333292e-05  3.7035150848897826e-05  1.0769637572951213e-05  3.4745624182629913e-05  3.7021765857969352e-05  3.4041387765771825e-05  2.0054566695493925e-05  1.0967415229285438e-05  8.9701937704519990e-06  1.9036874815097341e-05  1.6086247895654194e-05  3.2450394244269598e-05  3.1321041844997018e-05  3.3079959964649994e-05  3.2111951349738528e-05  3.3094289722231014e-05  3.1684623130204266e-05  7.4641235173142110e-06  6.9504575201876032e-06  5.5088219884920510e-06  1.7300788047854305e-05  3.3078089692606496e-05  3.4757095562632622e-05  2.6352694599557181e-05  1.5954516794870908e-05  1.4325090937338222e-05  2.1941917177608932e-05  2.8785273080162161e-05  3.1947898222057257e-05  1.6549586162260349e-05  3.9214658275021333e-05  4.0575222661461111e-05  3.1878438322139112e-05  3.1010067074861910e-05  3.9311848366067612e-05  4.0922667500505938e-05  3.1397027949644895e-05  3.1315388319038282e-05  3.1334561182262811e-05  3.4506810755010733e-05  3.9709762639151729e-05  1.3249999854229518e-05  9.7994934875376742e-06  3.6267646621383462e-05  1.8707116646338217e-05  3.4187347504405896e-05  3.8248667270876212e-05  3.5164779950176923e-05  3.6242417951728168e-05  1.1506315631284839e-05  3.9331213443753130e-05  9.5091112244529451e-06  1.0277981503148325e-05  3.7094921037095490e-05  6.9813605538860872e-06  6.9442474884495541e-06  6.8564092317446811e-06  1.0430516561894803e-05  1.7285830008612945e-05  1.3167996148371928e-05  3.8168217793130188e-05  4.0912838865549219e-05  3.9784620623150430e-05  4.0976868790582861e-06  4.3306261223715893e-06  6.5292455870848858e-06  5.4575728063819838e-06  1.1388291701360139e-05  1.4267130407354453e-05  8.7853320611754465e-06  1.1935404885644045e-05  3.7681278744524960e-05  3.8929853890198640e-05  3.5664702611612028e-05  3.6101825662834088e-05  4.1273128651466809e-05  3.9208290404878572e-05  3.9407291037412402e-05  3.8646107760102730e-05  3.9268413250132259e-05  3.9201923750098237e-05  3.6931564985672778e-05  3.7330786029031146e-05  3.5971092507253531e-05  3.3843768713851113e-05  3.3592864819831964e-05  3.8992490353250126e-05  3.9320945852448613e-05  4.1819630742696531e-05  3.6516492033529271e-05  4.0190573442043856e-05  3.7783252436236682e-05  4.1034917799707457e-05  1.3264862469366152e-05  4.2882265068486509e-05  4.1091157409259811e-05  4.0816862183619790e-05  3.8700726122873552e-05  3.8258692910014799e-05  2.9553853528288577e-05  8.1185637649064802e-06  4.1431022754013439e-05  3.9506326349872112e-05  3.3220372458894798e-05  3.8129792345352199e-05  3.6204598275474274e-05  3.9212937026331727e-05  3.9159268273394394e-05  3.9111493059656077e-05  4.1310061008373188e-05  4.1021562356490848e-05  3.8696017518493814e-05  4.1788732401358582e-05  3.9958252841713901e-05  3.9169191063591947e-05  4.0490441196769467e-05  4.3198985327697806e-05  3