<?xml version="1.0"?>
<VTKFile type="UnstructuredGrid"  version="0.1"  >
<UnstructuredGrid>
<Piece  NumberOfPoints="1133" NumberOfCells="2168">
<Points>
<DataArray  type="Float64"  NumberOfComponents="3"  format="ascii">0 0 0  0 1 0  1 1 0  1 0 0  1.1 -0.1 0  -0.1 -0.1 0  1.1 1.1 0  -0.1 1.1 0  0.5111738119319607 0.5101143418118117 0  0.2653112222047811 0.5344431316719116 0  0 0.9499999999997918 0  0 0.8999999999995836 0  0 0.8499999999996529 0  0 0.7999999999999998 0  0 0.7500000000003466 0  0 0.7000000000006934 0  0 0.6500000000010401 0  0 0.6000000000013869 0  0 0.5500000000017335 0  0 0.5000000000020587 0  0 0.4500000000018723 0  0 0.4000000000016644 0  0 0.3500000000014564 0  0 0.3000000000012483 0  0 0.2500000000010403 0  0 0.2000000000008322 0  0 0.1500000000006241 0  0 0.100000000000416 0  0 0.05000000000020799 0  0.04999999999989965 0 0  0.09999999999981467 0 0  0.1499999999997036 0 0  0.1999999999995579 0 0  0.2499999999994121 0 0  0.2999999999992664 0 0  0.3499999999991206 0 0  0.3999999999989749 0 0  0.4499999999988292 0 0  0.4999999999986943 0 0  0.5499999999988151 0 0  0.5999999999989468 0 0  0.6499999999990784 0 0  0.69999999999921 0 0  0.7499999999993417 0 0  0.7999999999994734 0 0  0.8499999999996051 0 0  0.8999999999997368 0 0  0.9499999999998684 0 0  1 0.04999999999989965 0  1 0.09999999999981467 0  1 0.1499999999997036 0  1 0.1999999999995579 0  1 0.2499999999994121 0  1 0.2999999999992664 0  1 0.3499999999991206 0  1 0.3999999999989749 0  1 0.4499999999988292 0  1 0.4999999999986943 0  1 0.5499999999988151 0  1 0.5999999999989468 0  1 0.6499999999990784 0  1 0.69999999999921 0  1 0.7499999999993417 0  1 0.7999999999994734 0  1 0.8499999999996051 0  1 0.8999999999997368 0  1 0.9499999999998684 0  0.9499999999997918 1 0  0.8999999999995836 1 0  0.8499999999996529 1 0  0.7999999999999998 1 0  0.7500000000003466 1 0  0.7000000000006934 1 0  0.6500000000010401 1 0  0.6000000000013869 1 0  0.5500000000017335 1 0  0.5000000000020587 1 0  0.4500000000018723 1 0  0.4000000000016644 1 0  0.3500000000014564 1 0  0.3000000000012483 1 0  0.2500000000010403 1 0  0.2000000000008322 1 0  0.1500000000006241 1 0  0.100000000000416 1 0  0.05000000000020799 1 0  -0.1 1.05000000000004 0  -0.1 1.000000000000079 0  -0.1 0.9500000000001624 0  -0.1 0.9000000000003032 0  -0.1 0.850000000000444 0  -0.1 0.8000000000005848 0  -0.1 0.7500000000007256 0  -0.1 0.7000000000008665 0  -0.1 0.6500000000010508 0  -0.1 0.6000000000012352 0  -0.1 0.5500000000014196 0  -0.1 0.500000000001539 0  -0.1 0.4500000000014195 0  -0.1 0.4000000000013 0  -0.1 0.3500000000011588 0  -0.1 0.3000000000010178 0  -0.1 0.2500000000008986 0  -0.1 0.2000000000007579 0  -0.1 0.1500000000006174 0  -0.1 0.1000000000005272 0  -0.1 0.05000000000040083 0  -0.1 2.671196597248127e-13 0  -0.1 -0.0499999999998666 0  -0.0500000000000906 -0.1 0  -1.730560139634463e-13 -0.1 0  0.04999999999975802 -0.1 0  0.09999999999961506 -0.1 0  0.1499999999994613 -0.1 0  0.199999999999302 -0.1 0  0.2499999999991446 -0.1 0  0.2999999999990088 -0.1 0  0.3499999999988296 -0.1 0  0.3999999999986936 -0.1 0  0.4499999999985143 -0.1 0  0.4999999999984002 -0.1 0  0.5499999999985247 -0.1 0  0.5999999999986493 -0.1 0  0.6499999999987955 -0.1 0  0.6999999999989417 -0.1 0  0.7499999999990659 -0.1 0  0.7999999999992116 -0.1 0  0.8499999999993573 -0.1 0  0.8999999999994526 -0.1 0  0.949999999999584 -0.1 0  0.9999999999997226 -0.1 0  1.049999999999861 -0.1 0  1.1 -0.0500000000000906 0  1.1 -1.730560139634463e-13 0  1.1 0.04999999999975802 0  1.1 0.09999999999961506 0  1.1 0.1499999999994613 0  1.1 0.199999999999302 0  1.1 0.2499999999991446 0  1.1 0.2999999999990088 0  1.1 0.3499999999988296 0  1.1 0.3999999999986936 0  1.1 0.4499999999985143 0  1.1 0.4999999999984002 0  1.1 0.5499999999985247 0  1.1 0.5999999999986493 0  1.1 0.6499999999987955 0  1.1 0.6999999999989417 0  1.1 0.7499999999990659 0  1.1 0.7999999999992116 0  1.1 0.8499999999993573 0  1.1 0.8999999999994526 0  1.1 0.949999999999584 0  1.1 0.9999999999997226 0  1.1 1.049999999999861 0  1.05000000000004 1.1 0  1.000000000000079 1.1 0  0.9500000000001624 1.1 0  0.9000000000003032 1.1 0  0.850000000000444 1.1 0  0.8000000000005848 1.1 0  0.7500000000007256 1.1 0  0.7000000000008665 1.1 0  0.6500000000010508 1.1 0  0.6000000000012352 1.1 0  0.5500000000014196 1.1 0  0.500000000001539 1.1 0  0.4500000000014195 1.1 0  0.4000000000013 1.1 0  0.3500000000011588 1.1 0  0.3000000000010178 1.1 0  0.2500000000008986 1.1 0  0.2000000000007579 1.1 0  0.1500000000006174 1.1 0  0.1000000000005272 1.1 0  0.05000000000040083 1.1 0  2.671196597248127e-13 1.1 0  -0.0499999999998666 1.1 0  0.2745501976977225 0.5672761247240098 0  0.2903138197491888 0.5972446329722455 0  0.3106879623418808 0.624060221464026 0  0.3358601016029584 0.6463245648746634 0  0.363304135227829 0.6654164607797407 0  0.3927154115360876 0.6811574713013715 0  0.4237795871781252 0.6934833176217582 0  0.456098108848725 0.702238686210182 0  0.4893284087252075 0.707480891977609 0  0.5231600687067566 0.7083674441715863 0  0.5568635378045025 0.7034085766500373 0  0.5893101831013301 0.6922967827729823 0  0.6193752766867531 0.6759383762944303 0  0.6459779356019337 0.6545843086517618 0  0.6689057443138302 0.6292569405466283 0  0.6869620914219565 0.60019790732706 0  0.6997215302923455 0.5684609438410682 0  0.7072865516780338 0.5351916461027281 0  0.7084693868153945 0.5014210269017754 0  0.7049855843672949 0.4678777418309952 0  0.6976210426718532 0.435070680474451 0  0.6863909984550832 0.4035527981307815 0  0.6720330126163727 0.3732933423683087 0  0.65386382314943 0.3452217907845455 0  0.6324850346365304 0.3192267583099564 0  0.6071091630797341 0.2971715271418223 0  0.5776196824776652 0.2804792189217174 0  0.5457953606512084 0.2682676364896444 0  0.5119808822679272 0.2647778290557534 0  0.4786220802533375 0.2695465936619054 0  0.4465645727340695 0.2795718239610905 0  0.4164712030242287 0.2938315940099805 0  0.3883879377997199 0.3112882626537575 0  0.3625036498360991 0.3316037248482824 0  0.338914925721551 0.3546874879653131 0  0.3178055381472447 0.3799449069186129 0  0.2993718458438621 0.4071802401138984 0  0.2837427180595378 0.4363929078815738 0  0.2724309491263373 0.4676463517108405 0  0.2655876344660884 0.5003946101564413 0  0.5527900916704992 0.2994268980845768 0  0.4458468856346143 0.3113522192042102 0  0.2938312317466048 0.5177194304453635 0  0.3415556071733307 0.6121246562011599 0  0.3198420831952856 0.4378028641902968 0  0.6171860424428081 0.3553721488467377 0  0.3719946451034903 0.3645942251835122 0  0.4196350613021294 0.6558350005095557 0  0.663388151955956 0.4314066323989844 0  0.591905771583463 0.6588855190411286 0  0.6531951690482573 0.5995468188942172 0  0.5084530255401107 0.6783008688488895 0  0.6794436088151501 0.519716296010622 0  0.3011613916204372 0.5730467073718912 0  0.5017771368211852 0.2950979301585964 0  0.348708267451261 0.3877416443329554 0  0.3809305625097129 0.397934134311328 0  0.4051540657289353 0.3753581933405051 0  0.4141887288644702 0.4086307801006085 0  0.4387265589169768 0.3856283013118365 0  0.3877821850538576 0.4331459317737389 0  0.426484695021254 0.4430749959983595 0  0.3976964030628176 0.469586926386622 0  0.4413070934748928 0.4864670709314152 0  0.4015329713376146 0.5207845128226372 0  0.3555573836367482 0.5004700412397364 0  0.3640170017674119 0.5528493976024572 0  0.412453101832357 0.5662323631704829 0  0.3571878634438994 0.458773397325919 0  0.3795391412888809 0.5915635582958582 0  0.4841167949320203 0.4405836341172104 0  0.5451342072385713 0.4593773305243637 0  0.5764601311362774 0.5048837496852562 0  0.5563536209219342 0.5682328849580908 0  0.5113353488862677 0.3859480123952 0  0.5751667303283977 0.400754271992677 0  0.5414836651341809 0.3534557044636617 0  0.6059521448545052 0.4430769150880844 0  0.4840532774692659 0.5823660194429925 0  0.3301160683242199 0.5295366010007571 0  0.6060560255396875 0.5632132258135741 0  0.6236045367534706 0.5150760967188696 0  0.5755541831011185 0.6073984914172146 0  0.428189224743269 0.354765842321016 0  0.468262201736152 0.3631494150913773 0  0.5160683395423761 0.61536050315052 0  0.4659384743503405 0.6208206488392715 0  0.3541557489833361 0.4219182374738189 0  0.3243848430808437 0.4742981350688303 0  0.3952652592532879 0.3434838003738248 0  0.6524958131753209 0.3991873531690576 0  0.6308549633202971 0.4225070566817421 0  0.637399996190317 0.4556058855421699 0  0.6216571821009783 0.3909398255278885 0  0.6111047351243082 0.4776546401860066 0  0.6467334302157809 0.4871384947553971 0  0.6723321907585195 0.4616436040235838 0  0.4706860061499781 0.3980476091295984 0  0.5037996668320522 0.3487479793999003 0  0.5272913114004503 0.3212491313257371 0  0.4739643690895019 0.3315990290011516 0  0.4468286062378087 0.4152133837330315 0  0.3681974340703123 0.6311874966614905 0  0.401477914727396 0.6261565822916698 0  0.347199938968938 0.5815628803269868 0  0.4746792353764301 0.6756320787255813 0  0.4930505331073735 0.6469514436071875 0  0.5277157432072491 0.6490252384095616 0  0.548956040535164 0.6220933920942312 0  0.5595141944145305 0.6522595173250993 0  0.5397876633915273 0.6778254311312534 0  0.4459482392592774 0.673904445127341 0  0.5622048311832945 0.3269578266688521 0  0.5791005329518305 0.3524249751758765 0  0.5959543923708152 0.3262683409315176 0  0.3890726992890404 0.6519804221181432 0  0.43193491990444 0.6270497320508072 0  0.4205955805738244 0.325378920197193 0  0.4735691285871068 0.3005185473474396 0  0.6360138744788317 0.6272721432288137 0  0.6224599756537631 0.5967017988650374 0  0.6043156326242756 0.6251730035261686 0  0.6381265891953632 0.5706195091384213 0  0.6684943801712007 0.5717093694029647 0  0.6531783474795479 0.5403485088797368 0  0.6011259723243962 0.4128598672350027 0  0.5733925522522521 0.4294385351046568 0  0.3279790160960981 0.4069122808406903 0  0.6423763982236474 0.3716838161427408 0  0.3204761131652084 0.5911172368615776 0  0.4190417326157393 0.5989677758894369 0  0.2955912667189361 0.487
[...]
<PointData  Scalars="v"> 
<DataArray  type="Float64"  Name="v"  format="ascii">0.0000000000000000e+00  0.0000000000000000e+00  0.0000000000000000e+00  0.0000000000000000e+00  0.0000000000000000e+00  0.0000000000000000e+00  0.0000000000000000e+00  0.0000000000000000e+00  5.2001939143123024e-04  4.9046865668548386e-04  0.0000000000000000e+00  0.0000000000000000e+00  0.0000000000000000e+00  0.0000000000000000e+00  0.0000000000000000e+00  0.0000000000000000e+00  0.0000000000000000e+00  0.0000000000000000e+00  0.0000000000000000e+00  0.0000000000000000e+00  0.0000000000000000e+00  0.0000000000000000e+00  0.0000000000000000e+00  0.0000000000000000e+00  0.0000000000000000e+00  0.0000000000000000e+00  0.0000000000000000e+00  0.0000000000000000e+00  0.0000000000000000e+00  0.0000000000000000e+00  0.0000000000000000e+00  0.0000000000000000e+00  0.0000000000000000e+00  0.0000000000000000e+00  0.0000000000000000e+00  0.0000000000000000e+00  0.0000000000000000e+00  0.0000000000000000e+00  0.0000000000000000e+00  0.0000000000000000e+00  0.0000000000000000e+00  0.0000000000000000e+00  0.0000000000000000e+00  0.0000000000000000e+00  0.0000000000000000e+00  0.0000000000000000e+00  0.0000000000000000e+00  0.0000000000000000e+00  0.0000000000000000e+00  0.0000000000000000e+00  0.0000000000000000e+00  0.0000000000000000e+00  0.0000000000000000e+00  0.0000000000000000e+00  0.0000000000000000e+00  0.0000000000000000e+00  0.0000000000000000e+00  0.0000000000000000e+00  0.0000000000000000e+00  0.0000000000000000e+00  0.0000000000000000e+00  0.0000000000000000e+00  0.0000000000000000e+00  0.0000000000000000e+00  0.0000000000000000e+00  0.0000000000000000e+00  0.0000000000000000e+00  0.0000000000000000e+00  0.0000000000000000e+00  0.0000000000000000e+00  0.0000000000000000e+00  0.0000000000000000e+00  0.0000000000000000e+00  0.0000000000000000e+00  0.0000000000000000e+00  0.0000000000000000e+00  0.0000000000000000e+00  0.0000000000000000e+00  0.0000000000000000e+00  0.0000000000000000e+00  0.0000000000000000e+00  0.0000000000000000e+00  0.0000000000000000e+00  0.0000000000000000e+00  0.0000000000000000e+00  0.0000000000000000e+00  0.0000000000000000e+00  0.0000000000000000e+00  0.0000000000000000e+00  0.0000000000000000e+00  0.0000000000000000e+00  0.0000000000000000e+00  0.0000000000000000e+00  0.0000000000000000e+00  0.0000000000000000e+00  0.0000000000000000e+00  0.0000000000000000e+00  0.0000000000000000e+00  0.0000000000000000e+00  0.0000000000000000e+00  0.0000000000000000e+00  0.0000000000000000e+00  0.0000000000000000e+00  0.0000000000000000e+00  0.0000000000000000e+00  0.0000000000000000e+00  0.0000000000000000e+00  0.0000000000000000e+00  0.0000000000000000e+00  0.0000000000000000e+00  0.0000000000000000e+00  0.0000000000000000e+00  0.0000000000000000e+00  0.0000000000000000e+00  0.0000000000000000e+00  0.0000000000000000e+00  0.0000000000000000e+00  0.0000000000000000e+00  0.0000000000000000e+00  0.0000000000000000e+00  0.0000000000000000e+00  0.0000000000000000e+00  0.0000000000000000e+00  0.0000000000000000e+00  0.0000000000000000e+00  0.0000000000000000e+00  0.0000000000000000e+00  0.0000000000000000e+00  0.0000000000000000e+00  0.0000000000000000e+00  0.0000000000000000e+00  0.0000000000000000e+00  0.0000000000000000e+00  0.0000000000000000e+00  0.0000000000000000e+00  0.0000000000000000e+00  0.0000000000000000e+00  0.0000000000000000e+00  0.0000000000000000e+00  0.0000000000000000e+00  0.0000000000000000e+00  0.0000000000000000e+00  0.0000000000000000e+00  0.0000000000000000e+00  0.0000000000000000e+00  0.0000000000000000e+00  0.0000000000000000e+00  0.0000000000000000e+00  0.0000000000000000e+00  0.0000000000000000e+00  0.0000000000000000e+00  0.0000000000000000e+00  0.0000000000000000e+00  0.0000000000000000e+00  0.0000000000000000e+00  0.0000000000000000e+00  0.0000000000000000e+00  0.0000000000000000e+00  0.0000000000000000e+00  0.0000000000000000e+00  0.0000000000000000e+00  0.0000000000000000e+00  0.0000000000000000e+00  0.0000000000000000e+00  0.0000000000000000e+00  0.0000000000000000e+00  0.0000000000000000e+00  0.0000000000000000e+00  0.0000000000000000e+00  0.0000000000000000e+00  0.0000000000000000e+00  0.0000000000000000e+00  0.0000000000000000e+00  0.0000000000000000e+00  0.0000000000000000e+00  0.0000000000000000e+00  0.0000000000000000e+00  0.0000000000000000e+00  4.9296287606486887e-04  4.9596768715873642e-04  4.9933520703112570e-04  5.0314977671940791e-04  5.0636116462231598e-04  5.0869297008937725e-04  5.1065249742072310e-04  5.1184124879456998e-04  5.1248426576870295e-04  5.1289642571885263e-04  5.1372776369322591e-04  5.1435587814477768e-04  5.1463811735709462e-04  5.1490004669314782e-04  5.1477245066494800e-04  5.1440537335764494e-04  5.1383581997883291e-04  5.1300505602718894e-04  5.1246169130887774e-04  5.1194642675548207e-04  5.1100805945176358e-04  5.0975890133381370e-04  5.0784399595872186e-04  5.0519189196159746e-04  5.0168153250328259e-04  4.9845282931188103e-04  4.9620600194834395e-04  4.9310207149548264e-04  4.9253243255873184e-04  4.9418951321513144e-04  4.9609349840881202e-04  4.9785128792640646e-04  4.9886293143981762e-04  4.9950029733694765e-04  4.9952154298680814e-04  4.9863083695831181e-04  4.9686051413062491e-04  4.9458705886214194e-04  4.9306754182829905e-04  4.9103293053171339e-04  5.0448734934900922e-04  5.0488264005121841e-04  5.0253431711610248e-04  5.0766624229117967e-04  5.0439683824999042e-04  5.1041930096750690e-04  5.0587865772350996e-04  5.1390517464631916e-04  5.1461717381676955e-04  5.1800556327121102e-04  5.1811991083517675e-04  5.1674160134272445e-04  5.1694644678144041e-04  5.0290356026834069e-04  5.0397982255589936e-04  5.0533527388756355e-04  5.0768125491889465e-04  5.0781174899146644e-04  5.0984827997986018e-04  5.0973547884066047e-04  5.0931198886177407e-04  5.1168366704084116e-04  5.1089074018074521e-04  5.1450960443355195e-04  5.1264731754345298e-04  5.0838637421678895e-04  5.0972900794170621e-04  5.1392245120462617e-04  5.0795967914184323e-04  5.1143478965781088e-04  5.1460607512732691e-04  5.1739962691587586e-04  5.1936633512391760e-04  5.2073059596590104e-04  5.1170542584606685e-04  5.1340202482268984e-04  5.0943062074159837e-04  5.1607773416375289e-04  5.1823857037563135e-04  5.0645454477968462e-04  5.1933192858576117e-04  5.1853823625928408e-04  5.1927636612481422e-04  5.0729936654517378e-04  5.0882726966864104e-04  5.1855212248940515e-04  5.1661069641696178e-04  5.0673641461835900e-04  5.0492980621321163e-04  5.0573443741979177e-04  5.1281737752878606e-04  5.1465242826032021e-04  5.1629054772198678e-04  5.1278151034416159e-04  5.1753116060927165e-04  5.1722373223871479e-04  5.1564805880702344e-04  5.1128762206973614e-04  5.0832097399052293e-04  5.0634259122856015e-04  5.0665019817043534e-04  5.1131648154340752e-04  5.1045239097134644e-04  5.1309288663606983e-04  5.0817012836283420e-04  5.1577795887473746e-04  5.1733022164549903e-04  5.1805176974997400e-04  5.1889120761825966e-04  5.1824675044798900e-04  5.1725648882890185e-04  5.1463606299635256e-04  5.0700023133124677e-04  5.0958753496027078e-04  5.0710931590547414e-04  5.1152315736968646e-04  5.1492031687841596e-04  5.0538027153896106e-04  5.0415789292401270e-04  5.1800470250687458e-04  5.1895849539611272e-04  5.1876502075434315e-04  5.1871849718671795e-04  5.1768379522359564e-04  5.1807624003235425e-04  5.1427578606120096e-04  5.1530333790195809e-04  5.0412286503739422e-04  5.1092567222131005e-04  5.0576650552530548e-04  5.1460349978891032e-04  5.0256273731176331e-04  5.0480504380773531e-04  5.0213259376062083e-04  5.1446012952516523e-04  5.1690791035147220e-04  5.0613503365819277e-04  5.1646299313220546e-04  5.1571297952636755e-04  5.1223159331496002e-04  5.0291264276828239e-04  5.1589612675471909e-04  5.1710285718806312e-04  5.0358175231530317e-04  5.1941010476593723e-04  5.1877844100881758e-04  5.0650525982805922e-04  5.1721475107897679e-04  5.0477927904995785e-04  5.1646357159036271e-04  5.0845582927184726e-04  5.1893457045258553e-04  5.1927149400123583e-04  5.1189917369114449e-04  5.1756383756986065e-04  5.1001128728674040e-04  5.1757823721119230e-04  5.1761326473519318e-04  5.1554438652903149e-04  5.0662140411291128e-04  5.1210391236709862e-04  5.0828426568836434e-04  4.9046609865002050e-04  4.9269662373018842e-04  4.9113852090247904e-04  4.8201100526388386e-04  4.7694978468904844e-04  5.0245028186262644e-04  5.0209219629733862e-04  5.0728080421597944e-04  5.0439906921565360e-04  4.8240519008271935e-04  5.0669873501187936e-04  4.8430967094318755e-04  3.6758481108297389e-05  3.6787874897528643e-05  3.6617513122450514e-05  3.6514609489246551e-05  4.5654499068040238e-05  4.7380306946550753e-04  4.7173490329109852e-04  4.3074535769187832e-05  4.1440863332462265e-05  3.9548682325881954e-05  4.8865388150852890e-05  5.0976315891206525e-05  5.5461558430095998e-05  5.1776769432414030e-05  5.2165883994099973e-05  5.0871137227831245e-05  5.0465122306055847e-04  4.7835918677580411e-05  6.2274758333672286e-05  5.2015453304279248e-05  3.1791577730609691e-05  5.3104508571883823e-05  5.9503374743529484e-05  3.0162191465700343e-05  3.1418451426870639e-05  2.9859598946392696e-05  1.9854350051834307e-05  2.1969439985108547e-05  2.6939511713352278e-05  2.1610056417845589e-05  1.3558193104042176e-05  1.5110639451383020e-05  1.3246801862674620e-05  1.5098424339105688e-05  4.7234943229828929e-04  4.4588290710335671e-04  4.4490222663493294e-04  4.0901658871839131e-04  4.0094452815697625e-04  4.1544495618294646e-04  3.6352443704759272e-04  3.5800109389001365e-04  3.1416714994971141e-04  3.0152587373880979e-04  3.3884903722803306e-04  2.8515625706156746e-04  3.2140398879067857e-04  2.6571685551748800e-04  3.0037999359377559e-04  2.4314376965885829e-04  2.7334472390108390e-04  3.2758199974472203e-04  2.9530579153303377e-04  2.4171591200149045e-04  2.5813872927524234e-04  3.0551779576371821e-04  2.6498930694938034e-04  3.0968822835840046e-04  2.1896257209334162e-04  2.6358458855761251e-04  3.0778344768910313e-04  2.5486441077238029e-04  2.9283200179815882e-04  2.1221273588193149e-04  2.5759249165683434e-04  2.6956505775817106e-04  3.6007675142113254e-04  2.1031571339078756e-04  2.2093696747343139e-04  2.2431360806772699e-04  2.7126603604359811e-04  3.3135862802523047e-04  3.0716034351731155e-04  2.4524662720938926e-04  2.7890877821112599e-04  2.0673176375613132e-04  3.6615283485175979e-04  2.8060835845634404e-04  2.3046369243990167e-04  2.8732134407513996e-04  2.3579901185566174e-04  2.8905374132429779e-04  2.3738757785740647e-04  2.8557801291803051e-04  2.3335967745446502e-04  2.7631545850819930e-04  2.2348547741310860e-04  2.5988844233987930e-04  2.0566221795509588e-04  2.3481319070468642e-04  2.8824739520712743e-04  2.5717914619329365e-04  3.1032396921045190e-04  2.7333669940041876e-04  3.2470186622920896e-04  2.8291457038928067e-04  3.4174664013779203e-04  2.8690652857732234e-04  3.3684205703731482e-04  1.8142671438741827e-04  2.2885692813803105e-04  3.2779633437547722e-04  2.8133814708594191e-04  3.2957312984824484e-04  2.6929633935620392e-04  3.1586323055843307e-04  2.5251651337415969e-04  2.9839418003743131e-04  3.5902311254370649e-04  3.4026708903849690e-04  2.7853232993650331e-04  3.1815567081825899e-04  2.5557967146645310e-04  2.9098864861382964e-04  3.5145243690033067e-04  3.2054540215718412e-04  3.7603702951316699e-04  3.4248253847977847e-04  2.8605795827451566e-04  3.0331032292124394e-04  3.5500789907544410e-04  3.1085923876311266e-04  3.5720337055822869e-04  3.0844204745424434e-04  3.5115100253386809e-04  2.6327407145604716e-04  2.5595222564173185e-04  2.4813693359049309e-04  2.1320532503554677e-04  2.0120431597701470e-04  2.3992510656879198e-04  2.2728570989254945e-04  3.6677057033502372e-04  3.9904176681897826e-04  3.8948701909578332e-04  3.8623772202156455e-04  4.0939726256645223e-04  4.3458097682725884e-04  4.2216704472292934e-04  3.7296459322158225e-04  4.0335375797776000e-04  3.5107309912788887e-04  3.7742684580934578e-04  3.1922833544562501e-04  3.4286560914676046e-04  2.8157386664673346e-04  3.0169249111462732e-04  3.6300065284783708e-04  3.2062776594203607e-04  3.7726470420827284e-04  3.3410719282714883e-04  3.8681540777596180e-04  3.4137765176807459e-04  3.8988933900212008e-04  3.4340697546242230e-04  3.8656329707265449e-04  3.3757421135464108e-04  3.7554759696237618e-04  3.2429919660693040e-04  3.5626537615646945e-04  3.0354664692342479e-04  3.2918870375796895e-04  2.8515372247449111e-04  2.7537021801614852e-04  2.9580136085904002e-04  2.5013761869532397e-04  2.2167850361530980e-04  1.9774648522132680e-04  2.9167638919252802e-04  2.7860509013003453e-04  3.4923421515764872e-04  3.1132673274311586e-04  2.5633854881957361e-04  2.6560462891037659e-04  3.2518970184823305e-04  2.6905006186300865e-04  3.1879009675159627e-04  2.6592180407528543e-04  1.6750994932459123e-04  1.4830632471451535e-04  1.6768384763827252e-04  2.1053306397547466e-04  2.5356960046111598e-04  1.6310644342228131e-04  1.6915423695731583e-04  4.2470334653663312e-04  1.8112222016408052e-04  1.8892808110090986e-04  1.5319332223296601e-04  1.3221871506218457e-04  1.5252204385919515e-04  4.2143640576393186e-04  1.2646298679962157e-04  1.8602718918477501e-04  4.3980778348862051e-04  4.2969664388442470e-04  2.2871568980313965e-04  2.3428660427676361e-04  3.8573751301870714e-04  3.6900290439451479e-04  4.2297110031929976e-04  1.2686372203779509e-04  1.2217851702918744e-04  2.1657109048622478e-04  3.1818868969216591e-04  2.1353068113910977e-04  2.1016185972871871e-04  3.3910055245860469e-04  1.4888550013416043e-04  1.0349973110492299e-04  3.6459045926923113e-04  3.6973979442993785e-04  2.1463221497113223e-04  2.0287980309706210e-04  1.0724809421720491e-04  4.3117510034626760e-04  1.3338646865569052e-04  2.0324422448135792e-04  3.9623504269637626e-04  4.1246615754057152e-04  1.6212814258613449e-04  1.7320757823610178e-04  4.5188867231613073e-04  8.9103407764092705e-05  8.8839336334934886e-05  4.4315256182515025e-04  4.7130306305628519e-04  4.6453609802506743e-04  4.8204958288660093e-04  2.1622442821018633e-04  4.7235881123931697e-04  1.7980532562548811e-04  1.3438603024202244e-04  1.8473461351001868e-04  1.7733928143696289e-04  1.1864593168336938e-04  1.3040535720120107e-04  1.8181516649266578e-04  2.0133800892530073e-04  1.5797396607574737e-04  2.2654223147906756e-04  1.9137950750406770e-04  1.6490563783007843e-04  1.3422849343797951e-04  1.8385145013879170e-04  1.5354934271680237e-04  1.2200482836599436e-04  1.5970144984889901e-04  4.1728499010574806e-04  3.9767309478309476e-04  4.4303398228008665e-04  4.3340187706694910e-04  4.5556579990150875e-04  1.4662035094040063e-04  1.0853862255665447e-04  4.7860306255105074e-04  4.7061619997846557e-04  8.0375762342345625e-05  6.6699692721799037e-05  3.1643271586287322e-04  1.1463861255591315e-04  1.6365041080878504e-04  4.7145624343319909e-04  8.4536194830450796e-05  8.6607275523291241e-05  5.8427253828560677e-05  3.7852779069143304e-04  1.7798126430891770e-04  1.3119170277347454e-04  1.6308195576874687e-04  2.4626889267845157e-04  1.8059389807679462e-04  4.3174812310005345e-04  1.6549921151766129e-04  1.2126403837606183e-04  9.0843854842867944e-05  7.9874718738688670e-05  1.5655310292789858e-04  4.6789235213605298e-04  4.3986081330820825e-04  8.4367455241874444e-05  4.4263223647420587e-04  2.0804445830907968e-04  4.9155939687861062e-04  1.1379067606748450e-04  1.3811736840091223e-04  9.0932689182124390e-05  1.1034239532851952e-04  1.5656712467895909e-04  1.2138307906344863e-04  8.1525755891981077e-05  8.6770949919955315e-05  1.2363323736224217e-04  1.0347644328276530e-04  4.8204418298642484e-04  4.5548893949177256e-04  4.5827770198963660e-04  4.4250147424517220e-04  4.1568461325950344e-04  5.0454698912936948e-04  4.8931580334610517e-04  4.8636877837505201e-04  4.6343006783544665e-04  4.9164772052722892e-04  4.9484007304897515e-04  4.8439161964386620e-04  4.7158462096645500e-04  4.7622745883202610e-04  4.4795987643140125e-04  4.5409190286417090e-04  4.5074966429276730e-04  4.7655825266609120e-04  4.4862351649411250e-04  4.7201418394734231e-04  4.4072326235935425e-04  4.6441627915086973e-04  4.1697644532751868e-04  4.0886103744766167e-04  3.7436013786993250e-04  4.2933012153869074e-04  4.5198362993264000e-04  3.9851047986327165e-04  4.4086706933904758e-04  5.4601680890767272e-05  5.0802117446307484e-04  4.8141246033689942e-04  4.6578514691105225e-04  4.9441471987601772e-04  4.7331345457435060e-04  3.9799856136050739e-04  8.6874250256116620e-05  1.2170375486930858e-04  4.2578850278846735e-04  5.0068613987664312e-04  4.8123808628033855e-04  4.9441347192668509e-04  4.7096366348722254e-04  4.2675957778519016e-04  4.7065235634704677e-04  3.1356601756908289e-04  9.1364541307412619e-05  6.2492044434560155e-05  5.0880392189252028e-04  1.5408360171551778e-04  1.1781641122109976e-04  4.4165300984423217e-04  1.6485499487776083e-04  5.0290262995148763e-04  4.7774234647381190e-05  4.2039308465745506e-04  4.7635585913412899e-04  4.6029371934228872e-04  4.9115746086259558e-04  1.2319498851621002e-04  1.7083441259527289e-04  5.0462964223867938e-04  4.8640776383150706e-04  4.6442699439566313e-04  4.6617163259612992e-04  4.3733769291821661e-04  4.3166195740359581e-04  4.6182510529679691e-04  4.2976693758016633e-04  4.5578207602068162e-04  4.2340839508413333e-04  3.9213036592533894e-04  4.0202503243762705e-04  4.4684319051054998e-04  4.6173972401664841e-04  4.9958711244141773e-04  4.8573595524681654e-04  4.8081478687446444e-04  3.9728814557401880e-04  1.3486509563928904e-04  1.5696182876350867e-04  1.1328933529821925e-04  4.4818254910314987e-04  1.0491071500120115e-04  1.3214308456943477e-04  7.4099376800237560e-05  9.4985335768541117e-05  4.9554145821434641e-04  4.7510773555885162e-04  4.8681667919336750e-04  4.0966321531946386e-04  4.7095612505444490e-04  2.4177514383045431e-04  4.8660709051599185e-04  4.0420701907420404e-04  3.3681798411243585e-04  3.8433864792064006e-04  3.8764973100440469e-04  4.2583045449331438e-04  4.3239964909101914e-04  3.8266125068138425e-04  3.4202508223882239e-04  3.8644107058628401e-04  3.9976512767349526e-04  3.2774866094446945e-04  5.1947421101697453e-05  5.1756448931338675e-05  1.0837724900380658e-04  1.0874580470270764e-04  1.0662041089390857e-04  5.1704492184225259e-05  1.0448494983725918e-04  5.4495661889723029e-05  1.5874145485564138e-04  1.5878827113227910e-04  3.5847637662118361e-04  5.2874608575257228e-05  1.1413158430593213e-04  1.1586088517861844e-04  5.3629122410407404e-05  1.1790134948476804e-04  1.1334639736594901e-04  6.0551244597516195e-05  1.7948474233913145e-04  4.3307175645302987e-04  4.8710173876327542e-04  4.8388918736870081e-05  4.0963232749785820e-04  3.7669107264976003e-04  4.3410231402408474e-04  3.7989302401930322e-04  4.0062892821005866e-04  4.1731404340106622e-04  4.0967279137548644e-04  3.7361245259524324e-04  3.7635232776380671e-05  8.2960407597769140e-05  9.2023574614663329e-05  1.3221107979563239e-04  4.7901104555788548e-05  9.8222321243753843e-05  5.4095264092450697e-05  7.0526083349618367e-05  1.1601374693008128e-04  3.7383935086719391e-05  8.5232562577045455e-05  7.1190833211032817e-05  3.2189271023679403e-05  3.7598585743576318e-05  1.0619225463074657e-04  7.0285495945932754e-05  2.5111952651286451e-04  3.2000553250833387e-04  5.2489460151131274e-05  5.0173280352097557e-05  1.0237760991153295e-04  1.1100614944251017e-04  4.6829835859584759e-04  3.4905997360387686e-04  4.5609777664616820e-04  5.2153830004622107e-05  4.8722420879478454e-04  2.8230772023500442e-05  2.4448299688254451e-05  2.9916520592514883e-05  5.5300953771783275e-05  3.7406606582636779e-04  2.8131816051190701e-05  6.4306119717646838e-05  4.6869497738191383e-05  1.0315453828431024e-04  1.0072443289064003e-04  1.4565337971114782e-04  4.1893202264540620e-05  5.6281679868663292e-05  2.3024836037291024e-05  3.3196284629034641e-05  3.4839485806367423e-04  5.0766851477070075e-04  4.7269092146003404e-05  2.1801028381733244e-04  2.1941965128593302e-05  2.0883875510807237e-05  4.0028189138357323e-04  4