<?xml version="1.0"?>
<VTKFile type="UnstructuredGrid"  version="0.1"  >
<UnstructuredGrid>
<Piece  NumberOfPoints="1235" NumberOfCells="2372">
<Points>
<DataArray  type="Float64"  NumberOfComponents="3"  format="ascii">0 0 0  0 1 0  1 1 0  1 0 0  1.1 -0.1 0  -0.1 -0.1 0  1.1 1.1 0  -0.1 1.1 0  0.5025319845904778 0.5024425299071876 0  0.2552977093961829 0.5414110461264163 0  0 0.9499999999997918 0  0 0.8999999999995836 0  0 0.8499999999996529 0  0 0.7999999999999998 0  0 0.7500000000003466 0  0 0.7000000000006934 0  0 0.6500000000010401 0  0 0.6000000000013869 0  0 0.5500000000017335 0  0 0.5000000000020587 0  0 0.4500000000018723 0  0 0.4000000000016644 0  0 0.3500000000014564 0  0 0.3000000000012483 0  0 0.2500000000010403 0  0 0.2000000000008322 0  0 0.1500000000006241 0  0 0.100000000000416 0  0 0.05000000000020799 0  0.04999999999989965 0 0  0.09999999999981467 0 0  0.1499999999997036 0 0  0.1999999999995579 0 0  0.2499999999994121 0 0  0.2999999999992664 0 0  0.3499999999991206 0 0  0.3999999999989749 0 0  0.4499999999988292 0 0  0.4999999999986943 0 0  0.5499999999988151 0 0  0.5999999999989468 0 0  0.6499999999990784 0 0  0.69999999999921 0 0  0.7499999999993417 0 0  0.7999999999994734 0 0  0.8499999999996051 0 0  0.8999999999997368 0 0  0.9499999999998684 0 0  1 0.04999999999989965 0  1 0.09999999999981467 0  1 0.1499999999997036 0  1 0.1999999999995579 0  1 0.2499999999994121 0  1 0.2999999999992664 0  1 0.3499999999991206 0  1 0.3999999999989749 0  1 0.4499999999988292 0  1 0.4999999999986943 0  1 0.5499999999988151 0  1 0.5999999999989468 0  1 0.6499999999990784 0  1 0.69999999999921 0  1 0.7499999999993417 0  1 0.7999999999994734 0  1 0.8499999999996051 0  1 0.8999999999997368 0  1 0.9499999999998684 0  0.9499999999997918 1 0  0.8999999999995836 1 0  0.8499999999996529 1 0  0.7999999999999998 1 0  0.7500000000003466 1 0  0.7000000000006934 1 0  0.6500000000010401 1 0  0.6000000000013869 1 0  0.5500000000017335 1 0  0.5000000000020587 1 0  0.4500000000018723 1 0  0.4000000000016644 1 0  0.3500000000014564 1 0  0.3000000000012483 1 0  0.2500000000010403 1 0  0.2000000000008322 1 0  0.1500000000006241 1 0  0.100000000000416 1 0  0.05000000000020799 1 0  -0.1 1.05000000000004 0  -0.1 1.000000000000079 0  -0.1 0.9500000000001624 0  -0.1 0.9000000000003032 0  -0.1 0.850000000000444 0  -0.1 0.8000000000005848 0  -0.1 0.7500000000007256 0  -0.1 0.7000000000008665 0  -0.1 0.6500000000010508 0  -0.1 0.6000000000012352 0  -0.1 0.5500000000014196 0  -0.1 0.500000000001539 0  -0.1 0.4500000000014195 0  -0.1 0.4000000000013 0  -0.1 0.3500000000011588 0  -0.1 0.3000000000010178 0  -0.1 0.2500000000008986 0  -0.1 0.2000000000007579 0  -0.1 0.1500000000006174 0  -0.1 0.1000000000005272 0  -0.1 0.05000000000040083 0  -0.1 2.671196597248127e-13 0  -0.1 -0.0499999999998666 0  -0.0500000000000906 -0.1 0  -1.730560139634463e-13 -0.1 0  0.04999999999975802 -0.1 0  0.09999999999961506 -0.1 0  0.1499999999994613 -0.1 0  0.199999999999302 -0.1 0  0.2499999999991446 -0.1 0  0.2999999999990088 -0.1 0  0.3499999999988296 -0.1 0  0.3999999999986936 -0.1 0  0.4499999999985143 -0.1 0  0.4999999999984002 -0.1 0  0.5499999999985247 -0.1 0  0.5999999999986493 -0.1 0  0.6499999999987955 -0.1 0  0.6999999999989417 -0.1 0  0.7499999999990659 -0.1 0  0.7999999999992116 -0.1 0  0.8499999999993573 -0.1 0  0.8999999999994526 -0.1 0  0.949999999999584 -0.1 0  0.9999999999997226 -0.1 0  1.049999999999861 -0.1 0  1.1 -0.0500000000000906 0  1.1 -1.730560139634463e-13 0  1.1 0.04999999999975802 0  1.1 0.09999999999961506 0  1.1 0.1499999999994613 0  1.1 0.199999999999302 0  1.1 0.2499999999991446 0  1.1 0.2999999999990088 0  1.1 0.3499999999988296 0  1.1 0.3999999999986936 0  1.1 0.4499999999985143 0  1.1 0.4999999999984002 0  1.1 0.5499999999985247 0  1.1 0.5999999999986493 0  1.1 0.6499999999987955 0  1.1 0.6999999999989417 0  1.1 0.7499999999990659 0  1.1 0.7999999999992116 0  1.1 0.8499999999993573 0  1.1 0.8999999999994526 0  1.1 0.949999999999584 0  1.1 0.9999999999997226 0  1.1 1.049999999999861 0  1.05000000000004 1.1 0  1.000000000000079 1.1 0  0.9500000000001624 1.1 0  0.9000000000003032 1.1 0  0.850000000000444 1.1 0  0.8000000000005848 1.1 0  0.7500000000007256 1.1 0  0.7000000000008665 1.1 0  0.6500000000010508 1.1 0  0.6000000000012352 1.1 0  0.5500000000014196 1.1 0  0.500000000001539 1.1 0  0.4500000000014195 1.1 0  0.4000000000013 1.1 0  0.3500000000011588 1.1 0  0.3000000000010178 1.1 0  0.2500000000008986 1.1 0  0.2000000000007579 1.1 0  0.1500000000006174 1.1 0  0.1000000000005272 1.1 0  0.05000000000040083 1.1 0  2.671196597248127e-13 1.1 0  -0.0499999999998666 1.1 0  0.2605589124556323 0.5654169443876891 0  0.2680814415574387 0.5887839709867965 0  0.2779752691082155 0.611618327422043 0  0.2901612143159717 0.6335602562848426 0  0.3046580320782141 0.6541944435376231 0  0.3215450721619383 0.6734838681667301 0  0.3404018337760975 0.6910020877833285 0  0.3613015599466066 0.7065535705542024 0  0.3836979137667058 0.7198763097742396 0  0.407316805695646 0.730831103680329 0  0.431812315067668 0.7392164540372231 0  0.4571917430843288 0.7449316606625669 0  0.4829412987445481 0.7480269564210257 0  0.5088963578295562 0.7484510358344221 0  0.5346052464002571 0.7461959678502773 0  0.5599628347835661 0.7412777016744246 0  0.5845516215342804 0.7338241711441958 0  0.6083109561204847 0.7239154944581685 0  0.6308196765318125 0.7116839471110314 0  0.6520002930824836 0.6971609946631278 0  0.6715338859086077 0.6805539148148025 0  0.6890982770134301 0.6621157695863763 0  0.7047117745081931 0.641824986557581 0  0.7181354566288326 0.6200670901769227 0  0.7292603965119324 0.5969866807216484 0  0.7378878206069417 0.5730085305720722 0  0.7440113917931918 0.5481456585068321 0  0.7475475590484052 0.5226777512455044 0  0.7484482263680626 0.4970026974195663 0  0.7467399885849419 0.4711148718653546 0  0.7425054261076178 0.4455204236053198 0  0.7356143047247211 0.4205773984941875 0  0.7259919272147797 0.3963614231191069 0  0.7138696799443514 0.3731836992302636 0  0.6994254055798077 0.3514416219326649 0  0.6828570677581709 0.3313588569168124 0  0.6643750662069815 0.3131030461723117 0  0.6444085081559505 0.297210909308245 0  0.62291629539624 0.2834833134301069 0  0.6003432512793422 0.2721769468070364 0  0.5768836461350481 0.2632212414872226 0  0.5528294792982812 0.2567189311079118 0  0.528501296373176 0.2527838817399698 0  0.5038023019417707 0.2512374634491857 0  0.4789165865316763 0.2521750441695287 0  0.4538631826933345 0.2557190598801802 0  0.4290591727269202 0.2618573777643316 0  0.4047930260158996 0.2706103367146211 0  0.381399700030624 0.2818886699240123 0  0.3591674710343335 0.2955810982610363 0  0.3383653146111976 0.3115218736126077 0  0.3193185404660044 0.3295033973348508 0  0.3022867824352821 0.3493620007987354 0  0.2875805231676067 0.3708318075623849 0  0.2752605700900725 0.3937476408113042 0  0.2655113432773387 0.4176480063935247 0  0.2584124696491327 0.4422740637691066 0  0.2539149293386631 0.467315714998517 0  0.2519520041916542 0.4923043172371869 0  0.2524433381457504 0.5170259775111959 0  0.2778476366162835 0.5488897869519352 0  0.2776332353540735 0.4601958815711276 0  0.3145346256844662 0.6304501527575163 0  0.536866053084796 0.2732096978485237 0  0.4483964121383938 0.2795553346880171 0  0.6213531315529478 0.3083992889294834 0  0.3827536709291186 0.3077310204320359 0  0.3290367901668224 0.3545532689648885 0  0.6648908638358861 0.6559324738157587 0  0.5866492361232574 0.7089452365727955 0  0.4971620714950087 0.7251338493904722 0  0.7127069717492162 0.579719772364396 0  0.7268401661900689 0.4871054265473646 0  0.4245801143730723 0.7132004846426374 0  0.7092283897046789 0.4168677587845461 0  0.3621349242124165 0.6809429333147773 0  0.677327887848571 0.3524401852766376 0  0.3018914248479879 0.3943735916313742 0  0.6280926776814134 0.6869719119289244 0  0.5432258854373244 0.7198290273422352 0  0.7240431106264603 0.5343955942724244 0  0.6924675510576879 0.6219435064044992 0  0.5819339856887491 0.2901276150352085 0  0.2907901033488706 0.5923750022710526 0  0.4935942336995271 0.2730233988017206 0  0.27268748473017 0.5046437410535867 0  0.6995588109048082 0.3935101362802334 0  0.6823163876430306 0.4125446563265679 0  0.6920807585869557 0.4371228106645708 0  0.664491688886 0.4321136078256861 0  0.6755236532074224 0.4587088136855664 0  0.651571012283897 0.4547429774963965 0  0.6311237130331324 0.431249500010858 0  0.6566099439961867 0.4805186198663235 0  0.6234924470787252 0.4751223177199529 0  0.6403888204939043 0.5108359861817506 0  0.5905945093528746 0.4443756726895193 0  0.6051286181862194 0.3985637288037798 0  0.5585550126746606 0.415088807522368 0  0.5700172211264852 0.3707063144860642 0  0.5227953839671752 0.3880278531302185 0  0.5323508909691388 0.3415444227158485 0  0.4883091373914756 0.354998923252109 0  0.482803017353758 0.3996070726485398 0  0.4470209841551182 0.3680907516286243 0  0.4413148702496179 0.4109200327399375 0  0.4154329069391199 0.3834347070598884 0  0.401423850903608 0.4160997445426231 0  0.6019156566024944 0.3664965535146613 0  0.500748859655882 0.3249376056915122 0  0.6766248094644298 0.5167366104950099 0  0.6509306920754268 0.5454784990897092 0  0.6115940271027515 0.5459081127914077 0  0.6334667116899483 0.5863334467005036 0  0.586930197037544 0.5811417048979214 0  0.6025459086389626 0.6178791214551245 0  0.5637575144423113 0.6219089453172186 0  0.5866368967278028 0.6485456352775958 0  0.5405047408890347 0.653056600985601 0  0.5245859429385115 0.6155825965816047 0  0.4958956497359059 0.6531123094826836 0  0.4826299533116324 0.613536949584402 0  0.4650185570077607 0.6408914527771337 0  0.4428590032739681 0.6171701054517154 0  0.4223264748015642 0.6400584242354888 0  0.3988143090780579 0.6175718868049171 0  0.4229513333295254 0.5768550640094511 0  0.3783353522310275 0.5775808852581295 0  0.4018557355168023 0.5387921485993215 0  0.3588051464359019 0.5415528028305183 0  0.3803312008739912 0.5029829671199919 0  0.339332743738714
[...]
<PointData  Scalars="v"> 
<DataArray  type="Float64"  Name="v"  format="ascii">0.0000000000000000e+00  0.0000000000000000e+00  0.0000000000000000e+00  0.0000000000000000e+00  0.0000000000000000e+00  0.0000000000000000e+00  0.0000000000000000e+00  0.0000000000000000e+00  3.7781162876847232e-05  3.6229847240207057e-05  0.0000000000000000e+00  0.0000000000000000e+00  0.0000000000000000e+00  0.0000000000000000e+00  0.0000000000000000e+00  0.0000000000000000e+00  0.0000000000000000e+00  0.0000000000000000e+00  0.0000000000000000e+00  0.0000000000000000e+00  0.0000000000000000e+00  0.0000000000000000e+00  0.0000000000000000e+00  0.0000000000000000e+00  0.0000000000000000e+00  0.0000000000000000e+00  0.0000000000000000e+00  0.0000000000000000e+00  0.0000000000000000e+00  0.0000000000000000e+00  0.0000000000000000e+00  0.0000000000000000e+00  0.0000000000000000e+00  0.0000000000000000e+00  0.0000000000000000e+00  0.0000000000000000e+00  0.0000000000000000e+00  0.0000000000000000e+00  0.0000000000000000e+00  0.0000000000000000e+00  0.0000000000000000e+00  0.0000000000000000e+00  0.0000000000000000e+00  0.0000000000000000e+00  0.0000000000000000e+00  0.0000000000000000e+00  0.0000000000000000e+00  0.0000000000000000e+00  0.0000000000000000e+00  0.0000000000000000e+00  0.0000000000000000e+00  0.0000000000000000e+00  0.0000000000000000e+00  0.0000000000000000e+00  0.0000000000000000e+00  0.0000000000000000e+00  0.0000000000000000e+00  0.0000000000000000e+00  0.0000000000000000e+00  0.0000000000000000e+00  0.0000000000000000e+00  0.0000000000000000e+00  0.0000000000000000e+00  0.0000000000000000e+00  0.0000000000000000e+00  0.0000000000000000e+00  0.0000000000000000e+00  0.0000000000000000e+00  0.0000000000000000e+00  0.0000000000000000e+00  0.0000000000000000e+00  0.0000000000000000e+00  0.0000000000000000e+00  0.0000000000000000e+00  0.0000000000000000e+00  0.0000000000000000e+00  0.0000000000000000e+00  0.0000000000000000e+00  0.0000000000000000e+00  0.0000000000000000e+00  0.0000000000000000e+00  0.0000000000000000e+00  0.0000000000000000e+00  0.0000000000000000e+00  0.0000000000000000e+00  0.0000000000000000e+00  0.0000000000000000e+00  0.0000000000000000e+00  0.0000000000000000e+00  0.0000000000000000e+00  0.0000000000000000e+00  0.0000000000000000e+00  0.0000000000000000e+00  0.0000000000000000e+00  0.0000000000000000e+00  0.0000000000000000e+00  0.0000000000000000e+00  0.0000000000000000e+00  0.0000000000000000e+00  0.0000000000000000e+00  0.0000000000000000e+00  0.0000000000000000e+00  0.0000000000000000e+00  0.0000000000000000e+00  0.0000000000000000e+00  0.0000000000000000e+00  0.0000000000000000e+00  0.0000000000000000e+00  0.0000000000000000e+00  0.0000000000000000e+00  0.0000000000000000e+00  0.0000000000000000e+00  0.0000000000000000e+00  0.0000000000000000e+00  0.0000000000000000e+00  0.0000000000000000e+00  0.0000000000000000e+00  0.0000000000000000e+00  0.0000000000000000e+00  0.0000000000000000e+00  0.0000000000000000e+00  0.0000000000000000e+00  0.0000000000000000e+00  0.0000000000000000e+00  0.0000000000000000e+00  0.0000000000000000e+00  0.0000000000000000e+00  0.0000000000000000e+00  0.0000000000000000e+00  0.0000000000000000e+00  0.0000000000000000e+00  0.0000000000000000e+00  0.0000000000000000e+00  0.0000000000000000e+00  0.0000000000000000e+00  0.0000000000000000e+00  0.0000000000000000e+00  0.0000000000000000e+00  0.0000000000000000e+00  0.0000000000000000e+00  0.0000000000000000e+00  0.0000000000000000e+00  0.0000000000000000e+00  0.0000000000000000e+00  0.0000000000000000e+00  0.0000000000000000e+00  0.0000000000000000e+00  0.0000000000000000e+00  0.0000000000000000e+00  0.0000000000000000e+00  0.0000000000000000e+00  0.0000000000000000e+00  0.0000000000000000e+00  0.0000000000000000e+00  0.0000000000000000e+00  0.0000000000000000e+00  0.0000000000000000e+00  0.0000000000000000e+00  0.0000000000000000e+00  0.0000000000000000e+00  0.0000000000000000e+00  0.0000000000000000e+00  0.0000000000000000e+00  0.0000000000000000e+00  0.0000000000000000e+00  0.0000000000000000e+00  0.0000000000000000e+00  0.0000000000000000e+00  0.0000000000000000e+00  0.0000000000000000e+00  0.0000000000000000e+00  0.0000000000000000e+00  0.0000000000000000e+00  0.0000000000000000e+00  0.0000000000000000e+00  0.0000000000000000e+00  0.0000000000000000e+00  0.0000000000000000e+00  3.6239129379144879e-05  3.6257446169677229e-05  3.6269061147983345e-05  3.6258761653884193e-05  3.6252375506292189e-05  3.6237581923228963e-05  3.6226091063895223e-05  3.6183427852569579e-05  3.6131994658767287e-05  3.6087994655989620e-05  3.6064101509539326e-05  3.6057241440591367e-05  3.6111000640744531e-05  3.6146424458166825e-05  3.6170535949313915e-05  3.6199875204111363e-05  3.6212516844489805e-05  3.6232572574635194e-05  3.6232792932503459e-05  3.6215550324557285e-05  3.6173565391462083e-05  3.6146052534200110e-05  3.6121552527188880e-05  3.6082042914497007e-05  3.6033468612682328e-05  3.5998167315432542e-05  3.5996687421377754e-05  3.6025828253105093e-05  3.6100215724097274e-05  3.6198897997535843e-05  3.6291838581190248e-05  3.6421460315748940e-05  3.6557233993422907e-05  3.6691185058288394e-05  3.6786536707932610e-05  3.6808174327414914e-05  3.6841844582957169e-05  3.6795623662982060e-05  3.6753288424913000e-05  3.6688665279129764e-05  3.6608802237368135e-05  3.6536303371865820e-05  3.6459756892057660e-05  3.6411863950229094e-05  3.6396729840506595e-05  3.6384204291300615e-05  3.6422615327196915e-05  3.6456436342581267e-05  3.6490382070502743e-05  3.6518993063950609e-05  3.6524483274867618e-05  3.6506865185819634e-05  3.6469478420789096e-05  3.6443030442753316e-05  3.6407645234620330e-05  3.6365910043184393e-05  3.6344045301535556e-05  3.6299819870010471e-05  3.6259130139670985e-05  3.6238452559486191e-05  3.6803239101839002e-05  3.6875915310702674e-05  3.6808933039971129e-05  3.6977107601342206e-05  3.6947103809442573e-05  3.7116541851162431e-05  3.6989141361693274e-05  3.6987733006207683e-05  3.6695557435315646e-05  3.6738198247453623e-05  3.6730064740143790e-05  3.6650182815805656e-05  3.6744689321256880e-05  3.6721402447820989e-05  3.6946080907322869e-05  3.6736932659094956e-05  3.7055854400913907e-05  3.6958585788603735e-05  3.6737811671764608e-05  3.6756884533645214e-05  3.6670192281533516e-05  3.6666444842017732e-05  3.7089985337852377e-05  3.6778778972278174e-05  3.6971898403761218e-05  3.6823812407811830e-05  3.7016074012304226e-05  3.7113191579756008e-05  3.7047951342977499e-05  3.7201161564363835e-05  3.7134814745600678e-05  3.7251711435950129e-05  3.7364366566763085e-05  3.7208534692770596e-05  3.7402953368473751e-05  3.7275122998511547e-05  3.7566362138050395e-05  3.7427422511191709e-05  3.7614385512678986e-05  3.7444277854381257e-05  3.7591953583925405e-05  3.7352020029629123e-05  3.7423934263112380e-05  3.7625213703698888e-05  3.7424439240177819e-05  3.7591357788304626e-05  3.7408615077852100e-05  3.7483012657021664e-05  3.7351171062050771e-05  3.7270543039393753e-05  3.7045001275359208e-05  3.7142292839532928e-05  3.7386435636719512e-05  3.7113086642429554e-05  3.7387907482495697e-05  3.7148733720533065e-05  3.7264012080970963e-05  3.7067746111580582e-05  3.7151313428830277e-05  3.7396543121684805e-05  3.7182700587087601e-05  3.7411213243204810e-05  3.7223473277833318e-05  3.7319920854728096e-05  3.7135220989135502e-05  3.7179849030193167e-05  3.7489822901380446e-05  3.7269946977122489e-05  3.7522767345050176e-05  3.7275973371237668e-05  3.7488748190786010e-05  3.7236863189268632e-05  3.7156429260484717e-05  3.7335292348234021e-05  3.6939141572723996e-05  3.6974843509585756e-05  3.7288155454569227e-05  3.7203757700313288e-05  3.7652872024018341e-05  3.6978528793828716e-05  3.6988417549858078e-05  3.6891455056540589e-05  3.7129942529812156e-05  3.7208945659767161e-05  3.7076751650829688e-05  3.6967273421712321e-05  3.6997917873404918e-05  3.6974017115321322e-05  3.7621712118649785e-05  3.7007891863861145e-05  3.7063431480271428e-05  3.7135429906891420e-05  3.6934232207175596e-05  3.7218046569306688e-05  3.7260864286817895e-05  3.7147802423569290e-05  3.6998155369302202e-05  3.6943215515219401e-05  3.7216018696501328e-05  3.7314209040213290e-05  3.7115752786048916e-05  3.7004555245394286e-05  3.7248274561468436e-05  3.7143173704094552e-05  3.7010162280246376e-05  3.7594683105593222e-05  3.7142484237370733e-05  3.7588984251615181e-05  3.6841194165199661e-05  3.7306037748309752e-05  3.7256688908437807e-05  3.6941986397872166e-05  3.7726487193910707e-05  3.6881636763297995e-05  3.7010582594895523e-05  3.6869299246210238e-05  3.6865874109876326e-05  3.7364167952743798e-05  3.7202590034554975e-05  3.7146178779728231e-05  3.7092251437923030e-05  3.6928648314084495e-05  3.7672273082154926e-05  3.6877394441412874e-05  3.6811409892949915e-05  3.6838657158860574e-05  3.6904118429649697e-05  3.6945407671955458e-05  3.6966001331959064e-05  3.7117500163391597e-05  3.7181627834327992e-05  3.7157621721275377e-05  3.6732036134311621e-05  3.7538632936050216e-05  3.6654875617850442e-05  3.6974436415395747e-05  3.7134394511171087e-05  3.6791611512193178e-05  3.6984885141040071e-05  3.6760160922021633e-05  3.6966773692465026e-05  3.6814260458636521e-05  3.6979561193568707e-05  3.7262290990782810e-05  3.6720986073219274e-05  3.6769176740244977e-05  3.6882368720747914e-05  3.7117437885178689e-05  3.6971297965074085e-05  3.7103296724422370e-05  3.7097653644488112e-05  3.6724081615173559e-05  3.7208811916159555e-05  3.6668055889094637e-05  3.6945199267978392e-05  3.6844858500396920e-05  3.6705238782516473e-05  3.6824597816548657e-05  3.6636145758680177e-05  3.6669973635444435e-05  3.6775582324858214e-05  3.6924409450199048e-05  3.6899053883664790e-05  3.7672670288615398e-05  3.6870627495347883e-05  3.7581789249569892e-05  3.6796065006017602e-05  3.6919090832520138e-05  3.6942208977425025e-05  3.6935226253356956e-05  3.7027713464755872e-05  3.7168461465328163e-05  3.7061582155369995e-05  3.7704125464357250e-05  3.6831535447544369e-05  3.6792270060208933e-05  3.7073241188535089e-05  3.6895890129715337e-05  3.7270400841297960e-05  3.7531908526205924e-05  3.7122760440036334e-05  3.7778879628454456e-05  3.6655518472699046e-05  3.6818735203675031e-05  3.6880583658895289e-05  3.6943862780078164e-05  3.6670908512868018e-05  3.7223087296722605e-05  3.7254983830873647e-05  3.6896599419496847e-05  3.7031791812293709e-05  3.6992235936453386e-05  3.7709098637580147e-05  3.7086726808912463e-05  3.7080423871601566e-05  3.6842244183509280e-05  3.6800034636134835e-05  3.7702049920231739e-05  3.7122777950299172e-05  3.7726195891921287e-05  3.7029033215403695e-05  3.7342585392042569e-05  3.6586563298461958e-05  3.6998820909872109e-05  3.7317248210312779e-05  3.6802980363304796e-05  3.6959188648937261e-05  3.7059753039161943e-05  3.7285958997215630e-05  3.7073658534774355e-05  3.7730908026800587e-05  3.6895733853487145e-05  3.7287838091725316e-05  3.6965533525025004e-05  3.7065766626126362e-05  3.7193632036384961e-05  3.7264713632964931e-05  3.7194999456455040e-05  3.7096972205509476e-05  3.7049530948488250e-05  3.7117663386960867e-05  3.7049247235422636e-05  3.6861343643748011e-05  3.6888312805663414e-05  3.7063193958668117e-05  3.7070499544108813e-05  3.7313354893280528e-05  3.7477902376785464e-05  3.7118193801000997e-05  3.7124120665437405e-05  3.6885665408630021e-05  3.7326028819012357e-05  3.7767737183806707e-05  3.6971960086134538e-05  3.7251729150323995e-05  3.7310001119233802e-05  3.7033491932312793e-05  3.6880783933668617e-05  3.7218480200447706e-05  3.7175457800324202e-05  3.6839885108078272e-05  3.6859601748513459e-05  3.7029574366319345e-05  3.5426817779612199e-05  3.4824569695382541e-05  3.4463348663258264e-05  3.6057136895886314e-05  3.4909211153796007e-05  3.5231144462757710e-05  3.5853788237340047e-05  3.5608181317851536e-05  3.5025766997301620e-05  3.4678041750139881e-05  3.5762034027355946e-05  3.4761179230296289e-05  3.4717314229763662e-05  3.4701970503938808e-05  2.7248238826344270e-06  3.4613767998955361e-05  3.7106020325214206e-06  3.5643840854324725e-06  3.5138998507530329e-05  3.5134907027640054e-06  4.0757248007621924e-06  2.9744682647708598e-06  4.7837073382858268e-06  3.4899098714319114e-05  3.5769134113554159e-06  3.4483397860646292e-05  3.5043467942462797e-05  3.4991117768569898e-05  3.5077074097567257e-05  3.5346348897850806e-05  3.4773859574451494e-05  6.1986802147944094e-06  4.8075778548600483e-06  5.3660281191876034e-06  5.3887272580998967e-06  4.7792491322225035e-06  4.7922918604743126e-06  5.2114388616091963e-06  5.5444260100711532e-06  7.1069583414234930e-06  6.5848762312050558e-06  6.7779591026404732e-06  6.0414470568578037e-06  1.5990366241874991e-06  1.7000602546978466e-06  1.6432014146556986e-06  2.8047774312361750e-06  1.7952936594758336e-06  1.4692813593409766e-06  2.4519056010338776e-06  1.5778703617936711e-06  3.4965543428249748e-05  3.2677682574326060e-05  3.2363752587683939e-05  2.9468805879239361e-05  2.9726250095273256e-05  2.8818718853736324e-05  2.5786014635046339e-05  2.6847463684540382e-05  2.1760087935428191e-05  2.2230729078402660e-05  2.6696684166373657e-05  2.2226948008473704e-05  2.6366657428932967e-05  2.1699187409376592e-05  2.5617736787623637e-05  2.0793364821890046e-05  2.4285134723899241e-05  1.9536978365366282e-05  2.2325373346471879e-05  1.7614104255693882e-05  1.9800111614224885e-05  2.4390618355590787e-05  2.1448941366583736e-05  2.5933686256444111e-05  2.1734126875312660e-05  1.6734164304687751e-05  2.6605673333170331e-05  2.2371929473137491e-05  2.6310680384006121e-05  2.1853619472400855e-05  2.6256718406742926e-05  1.7721183168926785e-05  2.1010602426548747e-05  2.5395757653423527e-05  1.9764480787299624e-05  2.3118688521465612e-05  2.9308558467878141e-05  2.8945963714110306e-05  1.5475740063649963e-05  2.1761929750351433e-05  3.0097479130917640e-05  1.7369419655183487e-05  2.0833227563878916e-05  1.6672989570103038e-05  2.9393988439072573e-05  2.6413582416546122e-05  2.4493895628491761e-05  1.8867501068527789e-05  2.3048397347423834e-05  1.6679828938704900e-05  1.9913525300917057e-05  1.4236798255368360e-05  1.7442008205949165e-05  2.2976241697082712e-05  2.0499494260151898e-05  1.5020505160566389e-05  1.7829316920413976e-05  1.2555600969277561e-05  1.4897726921117555e-05  2.0892246126139153e-05  1.6825105045521183e-05  2.1592228844500674e-05  1.7921432406114539e-05  2.1966650716167516e-05  1.8216807925682512e-05  2.2723256109433790e-05  1.7992544631073621e-05  2.1624458434655141e-05  1.4457390780693875e-05  1.6927357009185275e-05  2.0346065231416627e-05  1.5277429616554466e-05  1.8428902179887847e-05  1.3549437705012695e-05  2.3640896487805375e-05  2.1485029518409996e-05  2.6441592049369850e-05  2.7041461927143441e-05  2.4681262053157589e-05  2.5706836338815643e-05  1.8894427587775556e-05  2.1030213176696456e-05  1.2218479489212514e-05  1.0430409390966692e-05  2.5903897273295566e-05  1.5453933166825495e-05  1.7325597093893491e-05  2.2831267484556940e-05  1.9063570385809436e-05  2.5001500742275701e-05  2.0579694736446717e-05  2.5471366651705427e-05  2.2191907733329951e-05  1.6661750505624002e-05  1.7774770883883095e-05  2.2479522305418259e-05  1.8604439180315446e-05  2.2954641914103975e-05  1.9148564637078409e-05  2.3573744465438707e-05  1.9267573621899353e-05  2.2832106272081034e-05  1.8642899477163398e-05  2.1827543074439121e-05  1.7385960571977388e-05  2.0202397347431841e-05  1.5634176915192992e-05  1.8015152389211712e-05  1.5490611003188514e-05  1.3103999394911758e-05  1.1426187492696485e-05  2.2704495134034984e-05  2.0271552527214522e-05  1.5587457380620755e-05  1.7345928483011274e-05  2.2299549483350481e-05  1.8626531560390561e-05  1.3165064068737334e-05  2.5994067693691122e-05  2.4555920447256386e-05  1.9861446820093205e-05  9.2341145836022484e-06  2.5426601659944512e-05  2.0323327737295241e-05  7.7235767900087489e-06  2.5267896460810130e-05  2.0182167584596703e-05  2.4832467429470434e-05  1.9695242950951600e-05  2.4832815605311945e-05  1.8453435455615073e-05  2.2458990520021155e-05  1.6950989072815232e-05  2.1161661851838403e-05  1.5352922248856508e-05  1.5260221436358422e-05  1.9126959247745156e-05  2.4999782423175405e-05  2.2595411232002884e-05  1.6966830577653594e-05  1.9956379549878004e-05  1.4552897546534691e-05  1.7159374777015438e-05  2.2532190906902049e-05  1.9532484206726142e-05  1.4513545584026916e-05  1.6621863212291938e-05  1.2122361891713023e-05  1.3740156567767444e-05  1.8325418289873104e-05  1.4907476505548047e-05  1.9345585616290465e-05  1.5453674076100919e-05  1.9716633620630894e-05  9.7030449280516661e-06  2.3833663067728057e-05  2.4646759840490601e-05  1.9519272280989033e-05  2.3548935141477792e-05  2.4727051123176289e-05  1.8502474552725949e-05  2.2226577576141564e-05  1.4762958011547869e-05  1.1441043303091574e-05  2.7251802779384360e-05  2.8206958314352736e-05  2.7763330537790340e-05  2.6062816434596611e-05  2.1177570503921276e-05  2.7072118575562198e-05  1.0110201768180425e-05  3.1455426915468359e-05  2.8112211110274696e-05  1.0022740288094797e-05  2.6352112150999748e-05  1.0067824664632387e-05  2.9722747092387030e-05  2.8410284091759920e-05  1.0759008888910790e-05  2.7704863057776583e-05  2.9394305671679547e-05  9.3855990423874457e-06  2.9192285371607669e-05  1.1523530153153321e-05  2.7707984016818486e-05  2.8606663887170356e-05  3.0435362068672782e-05  1.5769138116012514e-05  1.1641807051077572e-05  9.7550356666793037e-06  1.7259974654142037e-05  1.5116217802706826e-05  3.0697786996903072e-05  2.9517941798298852e-05  3.1423430767093925e-05  3.1157742984042745e-05  3.1843926779546098e-05  3.0699657481094903e-05  6.3231390474300153e-06  6.0410519756347839e-06  4.7231788424278491e-06  1.6567151326996008e-05  3.1728910111983517e-05  3.3103836785965278e-05  2.6474843953595574e-05  1.2730321804421747e-05  1.1264126436015342e-05  2.1012051843113252e-05  2.8085594203652265e-05  2.9304214081899153e-05  1.6111945309376152e-05  3.0644948133600616e-05  3.2237623993345259e-05  2.9541368545779483e-05  2.9029183539892455e-05  3.1057657250237312e-05  3.2943645145490340e-05  2.9505446097485733e-05  2.9761608884632172e-05  3.0073644608315322e-05  3.2658915211299193e-05  3.1444075271060542e-05  1.3534009466143270e-05  1.0215762560504718e-05  3.4098876085195835e-05  1.3905072544482891e-05  3.1518179411834780e-05  3.0829029161222305e-05  2.8144287743395869e-05  3.3656562900049310e-05  7.7634319161221763e-06  3.2089167135993709e-05  6.2898864849524786e-06  6.7145863038650705e-06  3.3225957601496648e-05  7.6680002465938933e-06  7.7514182896880726e-06  7.4082117754734869e-06  1.0614304087510510e-05  1.3298670983933800e-05  9.2064522476204321e-06  3.4591958911702153e-05  3.3339511892352095e-05  3.1998136608398660e-05  4.6340351153322982e-06  4.9688513429898637e-06  7.0961953046618858e-06  6.0823636755795891e-06  7.7111699262176599e-06  9.6647110889156650e-06  5.9863726623305581e-06  8.3764359623348285e-06  2.8940553637267488e-05  3.4854763941955135e-05  3.2221012898459714e-05  3.2373216658494202e-05  3.5886641118661132e-05  3.4266470926853909e-05  3.4192877360905892e-05  3.4015579304757266e-05  3.4787893561818435e-05  3.4523932129566311e-05  3.2459133549941453e-05  3.2570927964846534e-05  3.1843738197960096e-05  2.9679475576739588e-05  2.5254816353279690e-05  3.0262836761834826e-05  3.0436339004262766e-05  3.3241386046477563e-05  2.7589202267157568e-05  3.1263293081139221e-05  2.8766791034674858e-05  3.2193412053285821e-05  9.8696170559536135e-06  3.4570023232212381e-05  3.2416195693604004e-05  3.2028839699963248e-05  2.9709408795750472e-05  2.9381106598092612e-05  2.7783944948377099e-05  6.4263332938242293e-06  3.5819048471149251e-05  3.4010671581916585e-05  2.9443986437995631e-05  3.4859345614316760e-05  2.9920626265552931e-05  3.2816466256413231e-05  3.3003184901117382e-05  3.2305351859917670e-05  3.4938042018750421e-05  3.4884776449203699e-05  3.2840597403566981e-05  3.4536158628931567e-05  3.2817668278274421e-05  3.2263705266813740e-05  3.2985928733344255e-05  3.5009950772505989e-05  2