<?xml version="1.0"?>
<VTKFile type="UnstructuredGrid"  version="0.1"  >
<UnstructuredGrid>
<Piece  NumberOfPoints="1235" NumberOfCells="2372">
<Points>
<DataArray  type="Float64"  NumberOfComponents="3"  format="ascii">0 0 0  0 1 0  1 1 0  1 0 0  1.1 -0.1 0  -0.1 -0.1 0  1.1 1.1 0  -0.1 1.1 0  0.5025435438761854 0.5024516686377298 0  0.2552950852841542 0.541419650957946 0  0 0.9499999999997918 0  0 0.8999999999995836 0  0 0.8499999999996529 0  0 0.7999999999999998 0  0 0.7500000000003466 0  0 0.7000000000006934 0  0 0.6500000000010401 0  0 0.6000000000013869 0  0 0.5500000000017335 0  0 0.5000000000020587 0  0 0.4500000000018723 0  0 0.4000000000016644 0  0 0.3500000000014564 0  0 0.3000000000012483 0  0 0.2500000000010403 0  0 0.2000000000008322 0  0 0.1500000000006241 0  0 0.100000000000416 0  0 0.05000000000020799 0  0.04999999999989965 0 0  0.09999999999981467 0 0  0.1499999999997036 0 0  0.1999999999995579 0 0  0.2499999999994121 0 0  0.2999999999992664 0 0  0.3499999999991206 0 0  0.3999999999989749 0 0  0.4499999999988292 0 0  0.4999999999986943 0 0  0.5499999999988151 0 0  0.5999999999989468 0 0  0.6499999999990784 0 0  0.69999999999921 0 0  0.7499999999993417 0 0  0.7999999999994734 0 0  0.8499999999996051 0 0  0.8999999999997368 0 0  0.9499999999998684 0 0  1 0.04999999999989965 0  1 0.09999999999981467 0  1 0.1499999999997036 0  1 0.1999999999995579 0  1 0.2499999999994121 0  1 0.2999999999992664 0  1 0.3499999999991206 0  1 0.3999999999989749 0  1 0.4499999999988292 0  1 0.4999999999986943 0  1 0.5499999999988151 0  1 0.5999999999989468 0  1 0.6499999999990784 0  1 0.69999999999921 0  1 0.7499999999993417 0  1 0.7999999999994734 0  1 0.8499999999996051 0  1 0.8999999999997368 0  1 0.9499999999998684 0  0.9499999999997918 1 0  0.8999999999995836 1 0  0.8499999999996529 1 0  0.7999999999999998 1 0  0.7500000000003466 1 0  0.7000000000006934 1 0  0.6500000000010401 1 0  0.6000000000013869 1 0  0.5500000000017335 1 0  0.5000000000020587 1 0  0.4500000000018723 1 0  0.4000000000016644 1 0  0.3500000000014564 1 0  0.3000000000012483 1 0  0.2500000000010403 1 0  0.2000000000008322 1 0  0.1500000000006241 1 0  0.100000000000416 1 0  0.05000000000020799 1 0  -0.1 1.05000000000004 0  -0.1 1.000000000000079 0  -0.1 0.9500000000001624 0  -0.1 0.9000000000003032 0  -0.1 0.850000000000444 0  -0.1 0.8000000000005848 0  -0.1 0.7500000000007256 0  -0.1 0.7000000000008665 0  -0.1 0.6500000000010508 0  -0.1 0.6000000000012352 0  -0.1 0.5500000000014196 0  -0.1 0.500000000001539 0  -0.1 0.4500000000014195 0  -0.1 0.4000000000013 0  -0.1 0.3500000000011588 0  -0.1 0.3000000000010178 0  -0.1 0.2500000000008986 0  -0.1 0.2000000000007579 0  -0.1 0.1500000000006174 0  -0.1 0.1000000000005272 0  -0.1 0.05000000000040083 0  -0.1 2.671196597248127e-13 0  -0.1 -0.0499999999998666 0  -0.0500000000000906 -0.1 0  -1.730560139634463e-13 -0.1 0  0.04999999999975802 -0.1 0  0.09999999999961506 -0.1 0  0.1499999999994613 -0.1 0  0.199999999999302 -0.1 0  0.2499999999991446 -0.1 0  0.2999999999990088 -0.1 0  0.3499999999988296 -0.1 0  0.3999999999986936 -0.1 0  0.4499999999985143 -0.1 0  0.4999999999984002 -0.1 0  0.5499999999985247 -0.1 0  0.5999999999986493 -0.1 0  0.6499999999987955 -0.1 0  0.6999999999989417 -0.1 0  0.7499999999990659 -0.1 0  0.7999999999992116 -0.1 0  0.8499999999993573 -0.1 0  0.8999999999994526 -0.1 0  0.949999999999584 -0.1 0  0.9999999999997226 -0.1 0  1.049999999999861 -0.1 0  1.1 -0.0500000000000906 0  1.1 -1.730560139634463e-13 0  1.1 0.04999999999975802 0  1.1 0.09999999999961506 0  1.1 0.1499999999994613 0  1.1 0.199999999999302 0  1.1 0.2499999999991446 0  1.1 0.2999999999990088 0  1.1 0.3499999999988296 0  1.1 0.3999999999986936 0  1.1 0.4499999999985143 0  1.1 0.4999999999984002 0  1.1 0.5499999999985247 0  1.1 0.5999999999986493 0  1.1 0.6499999999987955 0  1.1 0.6999999999989417 0  1.1 0.7499999999990659 0  1.1 0.7999999999992116 0  1.1 0.8499999999993573 0  1.1 0.8999999999994526 0  1.1 0.949999999999584 0  1.1 0.9999999999997226 0  1.1 1.049999999999861 0  1.05000000000004 1.1 0  1.000000000000079 1.1 0  0.9500000000001624 1.1 0  0.9000000000003032 1.1 0  0.850000000000444 1.1 0  0.8000000000005848 1.1 0  0.7500000000007256 1.1 0  0.7000000000008665 1.1 0  0.6500000000010508 1.1 0  0.6000000000012352 1.1 0  0.5500000000014196 1.1 0  0.500000000001539 1.1 0  0.4500000000014195 1.1 0  0.4000000000013 1.1 0  0.3500000000011588 1.1 0  0.3000000000010178 1.1 0  0.2500000000008986 1.1 0  0.2000000000007579 1.1 0  0.1500000000006174 1.1 0  0.1000000000005272 1.1 0  0.05000000000040083 1.1 0  2.671196597248127e-13 1.1 0  -0.0499999999998666 1.1 0  0.2605579912891843 0.5654269082732145 0  0.268080669210682 0.5887960102630331 0  0.2779744554705732 0.6116319577138772 0  0.2901582055012637 0.6335765015685988 0  0.3046553517361927 0.6542127493237241 0  0.3215438415701484 0.6735026101302664 0  0.3404009492539672 0.6910225954856563 0  0.3613009468911474 0.7065751347147043 0  0.3836980243137523 0.7198986093762427 0  0.4073184385792158 0.7308548050463518 0  0.4318168286743701 0.7392416731358988 0  0.4571985869080042 0.7449572198402811 0  0.4829510700798761 0.748053702745943 0  0.5089083451163082 0.7484775622540308 0  0.5346199750578053 0.7462224410477769 0  0.5599795075779425 0.7413042420321732 0  0.5845706467507467 0.7338507494053724 0  0.6083315759447161 0.723941892692016 0  0.630842626601994 0.7117108133810145 0  0.6520245753798716 0.6971874921098354 0  0.6715588141357677 0.6805789000485178 0  0.6891253554955882 0.6621393981711667 0  0.7047399232404203 0.6418472068272311 0  0.7181639758902222 0.6200869546962835 0  0.7292887394950016 0.5970039757368393 0  0.7379165406051685 0.5730222017766105 0  0.7440413278732099 0.5481560938227488 0  0.7475761225598815 0.5226847033468712 0  0.7484760489418101 0.4970056050295924 0  0.7467668892508199 0.4711152011909689 0  0.7425314071069383 0.4455181544576572 0  0.7356382986841107 0.4205725139201035 0  0.7260135573602359 0.396355930310642 0  0.713891137904024 0.3731779865922967 0  0.6994460162483798 0.3514365153246192 0  0.6828758297012523 0.3313554768492819 0  0.664394015448178 0.3130997048039388 0  0.6444273158601345 0.2972067623095595 0  0.6229351655398763 0.2834787460066389 0  0.6003604024640228 0.2721748387327978 0  0.5768996530861432 0.2632193277353639 0  0.5528450045161944 0.2567135935986751 0  0.5285143780004298 0.2527793142201739 0  0.5038129785732698 0.2512319125627813 0  0.4789241361896022 0.2521677245530778 0  0.4538680404660234 0.2557101087718968 0  0.4290615881663491 0.2618474274020892 0  0.4047940167009087 0.2706007788356265 0  0.3813999437715461 0.2818798757184063 0  0.3591674378904373 0.2955732858818978 0  0.3383649524458542 0.3115146344452558 0  0.319317295950528 0.3294966354955357 0  0.3022842202352403 0.3493555673986555 0  0.2875764910989667 0.3708268298799404 0  0.2752557146077497 0.3937435552396585 0  0.2655053203688725 0.4176453321249154 0  0.2584066347667337 0.4422734137032572 0  0.2539106266197533 0.4673169505183362 0  0.2519489598823626 0.4923079897851951 0  0.2524415699249101 0.5170321933589923 0  0.2778466777542364 0.548898642887615 0  0.2776298342661802 0.4601970673875899 0  0.3145335824989781 0.6304664140131981 0  0.5368791639349878 0.2732054722114246 0  0.4484011736763371 0.27954767581165 0  0.6213706619671689 0.3083964263674658 0  0.3827551386741697 0.3077241875711018 0  0.329035755549454 0.3545485040805923 0  0.6649158740940653 0.6559550596354518 0  0.5866681935467137 0.7089701827562239 0  0.4971730925457014 0.725158868699936 0  0.7127344454030488 0.5797347770977443 0  0.726866492433313 0.4871090209875186 0  0.4245844692388497 0.713223725220425 0  0.7092509191685572 0.4168659249365889 0  0.3621356955619875 0.6809628363339277 0  0.6773472348657638 0.3524374577538115 0  0.3018884517654415 0.3943706515277022 0  0.6281150814648 0.6869965450136774 0  0.5432411189934057 0.71985398681629 0  0.7240708843741021 0.5344050231091834 0  0.692494391960927 0.6219632981502488 0  0.581949461311184 0.2901255620886793 0  0.2907899007295599 0.592387516213551 0  0.4936031696790645 0.2730177995247473 0  0.2726856713717598 0.5046488165002988 0  0.6995799552355927 0.3935073780777634 0  0.6823374963649043 0.4125447300673433 0  0.6921033796328716 0.4371240676643787 0  0.664512514221307 0.4321161677444212 0  0.6755460395638552 0.4587128307847998 0  0.6515917525505122 0.4547477601818466 0  0.6311425059903477 0.4312533274010643 0  0.6566317392896547 0.4805252436753742 0  0.6235118671082863 0.4751293974790951 0  0.640410259524465 0.5108455059846156 0  0.5906110151832087 0.4443810672930625 0  0.6051451019462779 0.3985660545715602 0  0.5585689012634042 0.4150924174823108 0  0.5700312461099292 0.3707072803450204 0  0.522806616714705 0.3880294553801234 0  0.5323623652942235 0.3415434108946459 0  0.4883178044066153 0.3549977389721471 0  0.4828118575157694 0.3996087650226688 0  0.4470271930146104 0.3680895083538548 0  0.4413212410369093 0.4109217094282167 0  0.4154373447421712 0.3834339123762386 0  0.4014277501609599 0.4161009726747958 0  0.601931547243325 0.3664970746756658 0  0.5007581424140037 0.3249348767741476 0  0.6766489229292496 0.5167457631902 0  0.6509535537226023 0.5454908158370591 0  0.6116140226903313 0.5459208182776962 0  0.6334888615660331 0.5863494740383164 0  0.5869487579517031 0.5811571879081509 0  0.6025659451531066 0.6178975989033285 0  0.5637745173954755 0.6219273652191755 0  0.5866557976165332 0.6485663101616607 0  0.5405198739983155 0.6530770437731155 0  0.5245998567976959 0.6156001778384064 0  0.4959071724977338 0.653132293233699 0  0.4826406703703775 0.6135539137204925 0  0.4650277710348427 0.6409101878598358 0  0.4428668153136284 0.6171868010453183 0  0.4223325496611476 0.6400764739212083 0  0.3988190994330025 0.617587941361322 0  0.4229580099475391 0.5768684802249864 0  0.3783392429435664 0.5775936303408051 0  0.4018610261981181 0.5388023426027164 0  0.3588079517457611 0.5415623880564412 0  0.3803348806052971 0.5029900184015551 0  0.3393340921434773 0
[...]
<PointData  Scalars="v"> 
<DataArray  type="Float64"  Name="v"  format="ascii">0.0000000000000000e+00  0.0000000000000000e+00  0.0000000000000000e+00  0.0000000000000000e+00  0.0000000000000000e+00  0.0000000000000000e+00  0.0000000000000000e+00  0.0000000000000000e+00  3.7456792058297119e-05  3.5926530267292710e-05  0.0000000000000000e+00  0.0000000000000000e+00  0.0000000000000000e+00  0.0000000000000000e+00  0.0000000000000000e+00  0.0000000000000000e+00  0.0000000000000000e+00  0.0000000000000000e+00  0.0000000000000000e+00  0.0000000000000000e+00  0.0000000000000000e+00  0.0000000000000000e+00  0.0000000000000000e+00  0.0000000000000000e+00  0.0000000000000000e+00  0.0000000000000000e+00  0.0000000000000000e+00  0.0000000000000000e+00  0.0000000000000000e+00  0.0000000000000000e+00  0.0000000000000000e+00  0.0000000000000000e+00  0.0000000000000000e+00  0.0000000000000000e+00  0.0000000000000000e+00  0.0000000000000000e+00  0.0000000000000000e+00  0.0000000000000000e+00  0.0000000000000000e+00  0.0000000000000000e+00  0.0000000000000000e+00  0.0000000000000000e+00  0.0000000000000000e+00  0.0000000000000000e+00  0.0000000000000000e+00  0.0000000000000000e+00  0.0000000000000000e+00  0.0000000000000000e+00  0.0000000000000000e+00  0.0000000000000000e+00  0.0000000000000000e+00  0.0000000000000000e+00  0.0000000000000000e+00  0.0000000000000000e+00  0.0000000000000000e+00  0.0000000000000000e+00  0.0000000000000000e+00  0.0000000000000000e+00  0.0000000000000000e+00  0.0000000000000000e+00  0.0000000000000000e+00  0.0000000000000000e+00  0.0000000000000000e+00  0.0000000000000000e+00  0.0000000000000000e+00  0.0000000000000000e+00  0.0000000000000000e+00  0.0000000000000000e+00  0.0000000000000000e+00  0.0000000000000000e+00  0.0000000000000000e+00  0.0000000000000000e+00  0.0000000000000000e+00  0.0000000000000000e+00  0.0000000000000000e+00  0.0000000000000000e+00  0.0000000000000000e+00  0.0000000000000000e+00  0.0000000000000000e+00  0.0000000000000000e+00  0.0000000000000000e+00  0.0000000000000000e+00  0.0000000000000000e+00  0.0000000000000000e+00  0.0000000000000000e+00  0.0000000000000000e+00  0.0000000000000000e+00  0.0000000000000000e+00  0.0000000000000000e+00  0.0000000000000000e+00  0.0000000000000000e+00  0.0000000000000000e+00  0.0000000000000000e+00  0.0000000000000000e+00  0.0000000000000000e+00  0.0000000000000000e+00  0.0000000000000000e+00  0.0000000000000000e+00  0.0000000000000000e+00  0.0000000000000000e+00  0.0000000000000000e+00  0.0000000000000000e+00  0.0000000000000000e+00  0.0000000000000000e+00  0.0000000000000000e+00  0.0000000000000000e+00  0.0000000000000000e+00  0.0000000000000000e+00  0.0000000000000000e+00  0.0000000000000000e+00  0.0000000000000000e+00  0.0000000000000000e+00  0.0000000000000000e+00  0.0000000000000000e+00  0.0000000000000000e+00  0.0000000000000000e+00  0.0000000000000000e+00  0.0000000000000000e+00  0.0000000000000000e+00  0.0000000000000000e+00  0.0000000000000000e+00  0.0000000000000000e+00  0.0000000000000000e+00  0.0000000000000000e+00  0.0000000000000000e+00  0.0000000000000000e+00  0.0000000000000000e+00  0.0000000000000000e+00  0.0000000000000000e+00  0.0000000000000000e+00  0.0000000000000000e+00  0.0000000000000000e+00  0.0000000000000000e+00  0.0000000000000000e+00  0.0000000000000000e+00  0.0000000000000000e+00  0.0000000000000000e+00  0.0000000000000000e+00  0.0000000000000000e+00  0.0000000000000000e+00  0.0000000000000000e+00  0.0000000000000000e+00  0.0000000000000000e+00  0.0000000000000000e+00  0.0000000000000000e+00  0.0000000000000000e+00  0.0000000000000000e+00  0.0000000000000000e+00  0.0000000000000000e+00  0.0000000000000000e+00  0.0000000000000000e+00  0.0000000000000000e+00  0.0000000000000000e+00  0.0000000000000000e+00  0.0000000000000000e+00  0.0000000000000000e+00  0.0000000000000000e+00  0.0000000000000000e+00  0.0000000000000000e+00  0.0000000000000000e+00  0.0000000000000000e+00  0.0000000000000000e+00  0.0000000000000000e+00  0.0000000000000000e+00  0.0000000000000000e+00  0.0000000000000000e+00  0.0000000000000000e+00  0.0000000000000000e+00  0.0000000000000000e+00  0.0000000000000000e+00  0.0000000000000000e+00  0.0000000000000000e+00  0.0000000000000000e+00  0.0000000000000000e+00  0.0000000000000000e+00  0.0000000000000000e+00  0.0000000000000000e+00  0.0000000000000000e+00  3.5934762400707262e-05  3.5951821649775814e-05  3.5961998961436754e-05  3.5950064443559050e-05  3.5942128242788949e-05  3.5925953322856250e-05  3.5912928993842544e-05  3.5868918249393951e-05  3.5816203354612213e-05  3.5771276890258782e-05  3.5746459820015769e-05  3.5738446572059756e-05  3.5791130225465018e-05  3.5825209530223985e-05  3.5848098120896973e-05  3.5876034578361435e-05  3.5887395879175833e-05  3.5906316622654051e-05  3.5905552945236008e-05  3.5887575697400474e-05  3.5845174870305532e-05  3.5817488966309729e-05  3.5793367767968302e-05  3.5754500156428410e-05  3.5706902092007904e-05  3.5672556355523561e-05  3.5672091726041896e-05  3.5702531262212748e-05  3.5778033895201182e-05  3.5877661985342406e-05  3.5971700083197941e-05  3.6102254694790602e-05  3.6238899811806589e-05  3.6373724493670317e-05  3.6470245602579935e-05  3.6493297609023930e-05  3.6528397130718738e-05  3.6483692350391431e-05  3.6442951460039730e-05  3.6379905301142853e-05  3.6301642639766777e-05  3.6230251198657893e-05  3.6154753884788729e-05  3.6107726216039173e-05  3.6093085527192020e-05  3.6080936899906384e-05  3.6119733239100558e-05  3.6153667700304319e-05  3.6187670920233410e-05  3.6216434167067519e-05  3.6222121395318670e-05  3.6204842328563116e-05  3.6167943893011245e-05  3.6141703860256610e-05  3.6106548573805918e-05  3.6064997639179268e-05  3.6042862098414755e-05  3.5998439330351412e-05  3.5957451307482144e-05  3.5936112754147805e-05  3.6493122621289205e-05  3.6567688088579452e-05  3.6494655149171377e-05  3.6665856324341428e-05  3.6637783070676209e-05  3.6801084053699963e-05  3.6680546055836068e-05  3.6679612271173417e-05  3.6367146123050203e-05  3.6411389295485185e-05  3.6406656484033045e-05  3.6322912994571786e-05  3.6420521972685994e-05  3.6401073363488867e-05  3.6624274390971289e-05  3.6419776359362179e-05  3.6737395909313109e-05  3.6650619217582269e-05  3.6409913679136605e-05  3.6431654967992721e-05  3.6344246551830800e-05  3.6338230633529707e-05  3.6776234004491262e-05  3.6466999567761128e-05  3.6661660934157054e-05  3.6515010618978412e-05  3.6695366623731042e-05  3.6791235196094053e-05  3.6724914079606707e-05  3.6877978808811102e-05  3.6810569560333787e-05  3.6927388924709069e-05  3.7041110840639855e-05  3.6883162112784472e-05  3.7077356214707034e-05  3.6948474736697510e-05  3.7242234996441231e-05  3.7106169349832172e-05  3.7292283089962118e-05  3.7125276227234141e-05  3.7272419412023637e-05  3.7036317363239999e-05  3.7108561812722013e-05  3.7306493836211241e-05  3.7109996306696642e-05  3.7274277706445265e-05  3.7094749144367906e-05  3.7168131452893987e-05  3.7032159555383548e-05  3.6956798017989468e-05  3.6718675316655769e-05  3.6814720380579865e-05  3.7058644535409314e-05  3.6784602649491941e-05  3.7059677436602581e-05  3.6820312527968013e-05  3.6936249561825530e-05  3.6739936436258867e-05  3.6824441805264856e-05  3.7069789180061978e-05  3.6857840438081206e-05  3.7086374170461471e-05  3.6899924744980888e-05  3.6997092857618220e-05  3.6813912819194264e-05  3.6860066637972920e-05  3.7168160180823562e-05  3.6952016088278321e-05  3.7203107890457564e-05  3.6959974427387557e-05  3.7171441013352438e-05  3.6923057296170946e-05  3.6840618913214081e-05  3.7021729777221343e-05  3.6612077002205096e-05  3.6648030968246114e-05  3.6976212243232300e-05  3.6892844979769055e-05  3.7332791286400967e-05  3.6650226592389318e-05  3.6659877265873981e-05  3.6563596299127286e-05  3.6818741247322039e-05  3.6897482671650237e-05  3.6766660631045040e-05  3.6643516697459580e-05  3.6672850251770429e-05  3.6652245938671312e-05  3.7295883188094870e-05  3.6682734541802843e-05  3.6752149379315148e-05  3.6814534820383886e-05  3.6605941987401567e-05  3.6906553814834990e-05  3.6948246352620452e-05  3.6836906078523271e-05  3.6679415694498869e-05  3.6623518485960171e-05  3.6901998269368581e-05  3.6997452050114706e-05  3.6798194456111724e-05  3.6689174046387905e-05  3.6931446801168989e-05  3.6829336983670327e-05  3.6696618818322751e-05  3.7267457503174479e-05  3.6830053313571532e-05  3.7263038706499342e-05  3.6512678744039948e-05  3.6985400070211550e-05  3.6937781116272862e-05  3.6618052811906047e-05  3.7405969541490717e-05  3.6555401892169133e-05  3.6700523937554506e-05  3.6540829396863837e-05  3.6543241812099863e-05  3.7050864184328731e-05  3.6891612206979843e-05  3.6836086402634116e-05  3.6782533040404155e-05  3.6620748665624339e-05  3.7349956448071321e-05  3.6553383030299807e-05  3.6488616102869684e-05  3.6514043079835675e-05  3.6581715284267635e-05  3.6637818802410763e-05  3.6657897114867485e-05  3.6799817746186857e-05  3.6864491214725239e-05  3.6842599003708577e-05  3.6410530180072728e-05  3.7222108685566342e-05  3.6335777679651121e-05  3.6666265495297985e-05  3.6824265468890636e-05  3.6472808053010062e-05  3.6676052247744962e-05  3.6443940876610763e-05  3.6638908708220315e-05  3.6486392119215932e-05  3.6670441766898812e-05  3.6940555537852288e-05  3.6395868976928357e-05  3.6454117904420582e-05  3.6566036647948580e-05  3.6807699015872321e-05  3.6661396033807772e-05  3.6792146359019918e-05  3.6787704453734053e-05  3.6395845735292440e-05  3.6888907840484011e-05  3.6340273157665467e-05  3.6619289425531796e-05  3.6518624260158057e-05  3.6377787547420033e-05  3.6516365435183925e-05  3.6307744745454579e-05  3.6343411343227120e-05  3.6462671621353561e-05  3.6610740298681877e-05  3.6578421422085672e-05  3.7354041663278190e-05  3.6545313176675365e-05  3.7257699499155165e-05  3.6485039581864249e-05  3.6607193639730949e-05  3.6631062392273404e-05  3.6624992583253044e-05  3.6715435618285859e-05  3.6854426948698587e-05  3.6741876367397846e-05  3.7382441792583713e-05  3.6521983498255768e-05  3.6468865641351870e-05  3.6763983967372283e-05  3.6587883745266197e-05  3.6958430208990496e-05  3.7204560548780581e-05  3.6811756948921827e-05  3.7456391305607107e-05  3.6331636850074129e-05  3.6491447401032272e-05  3.6553636849329200e-05  3.6634027690016731e-05  3.6345087776446320e-05  3.6907755867557344e-05  3.6939779457785466e-05  3.6578962481626138e-05  3.6713963079405212e-05  3.6676053038932586e-05  3.7385014899239573e-05  3.6777333765750081e-05  3.6769221242056562e-05  3.6514016425088994e-05  3.6473382818851659e-05  3.7375960514087545e-05  3.6809798393684592e-05  3.7401585704759483e-05  3.6715461847197324e-05  3.7020868232894883e-05  3.6264722901432187e-05  3.6689352439386690e-05  3.6999488753464088e-05  3.6474798821334557e-05  3.6631879667225857e-05  3.6743904752753813e-05  3.6967639330014087e-05  3.6746408433855296e-05  3.7405275265124468e-05  3.6577108470253388e-05  3.6975277430832218e-05  3.6654885781591378e-05  3.6753503562780950e-05  3.6881196819218836e-05  3.6951555862223762e-05  3.6882829694901179e-05  3.6780737781087007e-05  3.6734673659408175e-05  3.6795377278597804e-05  3.6736213943616880e-05  3.6539901589713928e-05  3.6573866966987394e-05  3.6740081602077963e-05  3.6758549576979055e-05  3.6993804553575119e-05  3.7151068476956768e-05  3.6803661218508650e-05  3.6798358836462425e-05  3.6573352430121975e-05  3.7013130596716953e-05  3.7444167874570110e-05  3.6643512616593943e-05  3.6937694736627367e-05  3.6997715559327264e-05  3.6713475114247274e-05  3.6556350473629258e-05  3.6907418840122738e-05  3.6864073263139565e-05  3.6512584199679767e-05  3.6544401626267638e-05  3.6708607544149167e-05  3.5136736479559118e-05  3.4524580753314013e-05  3.4137820673658562e-05  3.5750648119436966e-05  3.4601358918821181e-05  3.4943040975115608e-05  3.5541857654846520e-05  3.5315376370191296e-05  3.4702457525826504e-05  3.4354304160175104e-05  3.5464066123001136e-05  3.4469528852080819e-05  3.4429021751274235e-05  3.4416640827416723e-05  2.6951935152163906e-06  3.4303877658495901e-05  3.6756511650842002e-06  3.5280463362923635e-06  3.4824057106099842e-05  3.4645741021167784e-06  4.0385436305209113e-06  2.9282385004019519e-06  4.7463060460931922e-06  3.4582074959537779e-05  3.5393156924188471e-06  3.4165389254995420e-05  3.4753914221421152e-05  3.4701535396972882e-05  3.4789773592676627e-05  3.5054018554400360e-05  3.4460914589183141e-05  6.1386899253067970e-06  4.7523160591235941e-06  5.3140499990361946e-06  5.3455738399836049e-06  4.7163149669852513e-06  4.7456728391942835e-06  5.1510960213797134e-06  5.4948886788887530e-06  7.0548022828420026e-06  6.5161779192706436e-06  6.7259530989477472e-06  5.9869961002850396e-06  1.5747052686738126e-06  1.6808530772824421e-06  1.6249057834501277e-06  2.7812450589733843e-06  1.7745843224775104e-06  1.4526737039611119e-06  2.4295644896255802e-06  1.5504349084811022e-06  3.4676611726963902e-05  3.2410675103495632e-05  3.2098719934247597e-05  2.9230701226136161e-05  2.9488183985929004e-05  2.8584660337308413e-05  2.5581426651642409e-05  2.6636687989916289e-05  2.1590346410749222e-05  2.2059720241649772e-05  2.6489270490118066e-05  2.2057127536023266e-05  2.6162991032835919e-05  2.1533589870208622e-05  2.5419567134546839e-05  2.0633973021940483e-05  2.4096155814145950e-05  1.9386075271655337e-05  2.2150178087577183e-05  1.7476834923975412e-05  1.9642821023327421e-05  2.4195299987347820e-05  2.1274681753393061e-05  2.5721555901254604e-05  2.1552465816075789e-05  1.6599420063642227e-05  2.6382167938867042e-05  2.2178780848072301e-05  2.6082939852295282e-05  2.1659023961043142e-05  2.6023129621365204e-05  1.7563983082656402e-05  2.0817284795201962e-05  2.5161482617312235e-05  1.9575787298763219e-05  2.2895928062537373e-05  2.9076674394848211e-05  2.8711386970436031e-05  1.5358189213302291e-05  2.1589258679834473e-05  2.9841016927258390e-05  1.7194267458297831e-05  2.0621422446640320e-05  1.6543007180254801e-05  2.9130861718571940e-05  2.6159743389947969e-05  2.4248033367053545e-05  1.8665009298172470e-05  2.2807561735610596e-05  1.6490759310116613e-05  1.9693158466755752e-05  1.4067890375449467e-05  1.7240998379680273e-05  2.2728694674460384e-05  2.0270661368311198e-05  1.4840700930374298e-05  1.7622485847952041e-05  1.2399125474292205e-05  1.4716985281979271e-05  2.0658834181149193e-05  1.6626360115483016e-05  2.1352015581567457e-05  1.7712070960065480e-05  2.1721803360542367e-05  1.8003709208438725e-05  2.2471888641729198e-05  1.7782416873657173e-05  2.1385374452276751e-05  1.4279888176462138e-05  1.6729938647857301e-05  2.0122279893669044e-05  1.5099666627144738e-05  1.8227195587006460e-05  1.3381687185122988e-05  2.3394795320265117e-05  2.1262133631951893e-05  2.6164734932111444e-05  2.6773859793143443e-05  2.4436426356381889e-05  2.5435253782504166e-05  1.8698921683731706e-05  2.0819456615078208e-05  1.2066990461241252e-05  1.0301560573686718e-05  2.5633603615909172e-05  1.5294112015044375e-05  1.7150175484920002e-05  2.2607266405018050e-05  1.8873610913855687e-05  2.4761796787650093e-05  2.0378109118202179e-05  2.5229627159148584e-05  2.1978182077927942e-05  1.6497201389465825e-05  1.7601088378774279e-05  2.2264585863994361e-05  1.8424281785577363e-05  2.2736771226296117e-05  1.8964327837224263e-05  2.3352222169856150e-05  1.9083490263396872e-05  2.2618625673293082e-05  1.8465029916900476e-05  2.1623766679034179e-05  1.7218871034185063e-05  2.0012714989275740e-05  1.5481907781077383e-05  1.7844517876290707e-05  1.5340472454827873e-05  1.2974231832456259e-05  1.1310328707072941e-05  2.2498197796630160e-05  2.0086721745424114e-05  1.5438152358022110e-05  1.7186845290257401e-05  2.2104004518864169e-05  1.8461885704463546e-05  1.3042925848730735e-05  2.5757358218282078e-05  2.4346991615839171e-05  1.9690411206528144e-05  9.1388358064619685e-06  2.5213900113478687e-05  2.0150553369399957e-05  7.6408046635716780e-06  2.5058250975484860e-05  2.0011475666641633e-05  2.4627757463014400e-05  1.9529895591969386e-05  2.4629509785928482e-05  1.8298519147988873e-05  2.2273880875170212e-05  1.6807231417791455e-05  2.0985659973171189e-05  1.5221048344856131e-05  1.5127335492956522e-05  1.8963490394783319e-05  2.4795235447993109e-05  2.2405326824748606e-05  1.6815868782127250e-05  1.9781923219949673e-05  1.4417004544444053e-05  1.7002884616854545e-05  2.2339134635626491e-05  1.9359949673443392e-05  1.4376564090375724e-05  1.6471125940398351e-05  1.2005680936396344e-05  1.3613069953897436e-05  1.8165205857742324e-05  1.4774852911346396e-05  1.9181388888167970e-05  1.5320620262742005e-05  1.9552834537214953e-05  9.6074437002151068e-06  2.3638753756527636e-05  2.4447998178751926e-05  1.9359097180849562e-05  2.3359101201755741e-05  2.4519495676561215e-05  1.8351505824719886e-05  2.2047093756203712e-05  1.4640431615453947e-05  1.1337829744559370e-05  2.7032971762738299e-05  2.7979963626222763e-05  2.7538485148817973e-05  2.5852708793012001e-05  2.1006579560656504e-05  2.6819324695586524e-05  1.0008519886011849e-05  3.1201645006174016e-05  2.7884197978809331e-05  9.8917835346880970e-06  2.6125910191416524e-05  9.9673990626430224e-06  2.9441415374334878e-05  2.8124999317660587e-05  1.0629634211836024e-05  2.7476699360255762e-05  2.9153678363212225e-05  9.2877555394897087e-06  2.8911675410311939e-05  1.1423301206001824e-05  2.7445008369006404e-05  2.8322767911261862e-05  3.0195086593913024e-05  1.5620136969887089e-05  1.1531165403636814e-05  9.6575398037730064e-06  1.7129638884199391e-05  1.4984098639964192e-05  3.0450261121195187e-05  2.9279148303614833e-05  3.1170603927797787e-05  3.0905307391847446e-05  3.1584882471192103e-05  3.0450635337560023e-05  6.2567430265905537e-06  5.9745446337811987e-06  4.6698092616105500e-06  1.6435905082934785e-05  3.1473251223062422e-05  3.2834316380289620e-05  2.6256445615012728e-05  1.2605234315098503e-05  1.1152226561193103e-05  2.0843515491136847e-05  2.7860760270780140e-05  2.9061611069518325e-05  1.5983624991404295e-05  3.0343785498478484e-05  3.1928599898671466e-05  2.9299560887995376e-05  2.8793033107812726e-05  3.0760185660167670e-05  3.2635597304457680e-05  2.9265885585237448e-05  2.9521203871874410e-05  2.9831365233673843e-05  3.2394805555372856e-05  3.1140937404125856e-05  1.3423515807389304e-05  1.0131331663331473e-05  3.3821801455809738e-05  1.3756588528938559e-05  3.1260520727606199e-05  3.0544282804132330e-05  2.7882924778278218e-05  3.3382633394029025e-05  7.6608910769202463e-06  3.1798560220996190e-05  6.2032883460038949e-06  6.6197597285767695e-06  3.2955828257045643e-05  7.5974293239316025e-06  7.6761518796211834e-06  7.3433906378145616e-06  1.0519519321224298e-05  1.3162787517029483e-05  9.0916528594570335e-06  3.4306313590423621e-05  3.3034350641719926e-05  3.1698859934819764e-05  4.5873910031564775e-06  4.9165521604595346e-06  7.0250751479670792e-06  6.0188452872729025e-06  7.6100764261026799e-06  9.5386356094576370e-06  5.9084523978102339e-06  8.2742472822519539e-06  2.8648482562086205e-05  3.4564012657904608e-05  3.1952635570700021e-05  3.2101159317219969e-05  3.5585979496886343e-05  3.3984423021431312e-05  3.3909351485564134e-05  3.3737597809337120e-05  3.4493602204846323e-05  3.4228728358627078e-05  3.2178120118994730e-05  3.2286874688295937e-05  3.1569811941065545e-05  2.9418732961637123e-05  2.4990772659021850e-05  2.9963757575733707e-05  3.0132645263268502e-05  3.2923672208034654e-05  2.7302015821766966e-05  3.0952742315439014e-05  2.8470837766153254e-05  3.1877669752234954e-05  9.7642653900799615e-06  3.4245125405569408e-05  3.2102362401477810e-05  3.1715719058153451e-05  2.9408509435429690e-05  2.9084627127100814e-05  2.7558771468645988e-05  6.3632585543028294e-06  3.5517594552113684e-05  3.3726919812065309e-05  2.9212861837803076e-05  3.4573463720036263e-05  2.9661239315214068e-05  3.2534750448098917e-05  3.2722752834357065e-05  3.2020503965718212e-05  3.4638628102645012e-05  3.4588319003683435e-05  3.2564577653252585e-05  3.4222989447814424e-05  3.2517624320293685e-05  3.1968689224589730e-05  3.2681928148205686e-05  3.4683663030519729e-05  2