<?xml version="1.0"?>
<VTKFile type="UnstructuredGrid"  version="0.1"  >
<UnstructuredGrid>
<Piece  NumberOfPoints="1078" NumberOfCells="2058">
<Points>
<DataArray  type="Float64"  NumberOfComponents="3"  format="ascii">0 0 0  0 1 0  1 1 0  1 0 0  1.1 -0.1 0  -0.1 -0.1 0  1.1 1.1 0  -0.1 1.1 0  0.45 0.5 0  0 0.9499999999997918 0  0 0.8999999999995836 0  0 0.8499999999996529 0  0 0.7999999999999998 0  0 0.7500000000003466 0  0 0.7000000000006934 0  0 0.6500000000010401 0  0 0.6000000000013869 0  0 0.5500000000017335 0  0 0.5000000000020587 0  0 0.4500000000018723 0  0 0.4000000000016644 0  0 0.3500000000014564 0  0 0.3000000000012483 0  0 0.2500000000010403 0  0 0.2000000000008322 0  0 0.1500000000006241 0  0 0.100000000000416 0  0 0.05000000000020799 0  0.04999999999989965 0 0  0.09999999999981467 0 0  0.1499999999997036 0 0  0.1999999999995579 0 0  0.2499999999994121 0 0  0.2999999999992664 0 0  0.3499999999991206 0 0  0.3999999999989749 0 0  0.4499999999988292 0 0  0.4999999999986943 0 0  0.5499999999988151 0 0  0.5999999999989468 0 0  0.6499999999990784 0 0  0.69999999999921 0 0  0.7499999999993417 0 0  0.7999999999994734 0 0  0.8499999999996051 0 0  0.8999999999997368 0 0  0.9499999999998684 0 0  1 0.04999999999989965 0  1 0.09999999999981467 0  1 0.1499999999997036 0  1 0.1999999999995579 0  1 0.2499999999994121 0  1 0.2999999999992664 0  1 0.3499999999991206 0  1 0.3999999999989749 0  1 0.4499999999988292 0  1 0.4999999999986943 0  1 0.5499999999988151 0  1 0.5999999999989468 0  1 0.6499999999990784 0  1 0.69999999999921 0  1 0.7499999999993417 0  1 0.7999999999994734 0  1 0.8499999999996051 0  1 0.8999999999997368 0  1 0.9499999999998684 0  0.9499999999997918 1 0  0.8999999999995836 1 0  0.8499999999996529 1 0  0.7999999999999998 1 0  0.7500000000003466 1 0  0.7000000000006934 1 0  0.6500000000010401 1 0  0.6000000000013869 1 0  0.5500000000017335 1 0  0.5000000000020587 1 0  0.4500000000018723 1 0  0.4000000000016644 1 0  0.3500000000014564 1 0  0.3000000000012483 1 0  0.2500000000010403 1 0  0.2000000000008322 1 0  0.1500000000006241 1 0  0.100000000000416 1 0  0.05000000000020799 1 0  -0.1 1.05000000000004 0  -0.1 1.000000000000079 0  -0.1 0.9500000000001624 0  -0.1 0.9000000000003032 0  -0.1 0.850000000000444 0  -0.1 0.8000000000005848 0  -0.1 0.7500000000007256 0  -0.1 0.7000000000008665 0  -0.1 0.6500000000010508 0  -0.1 0.6000000000012352 0  -0.1 0.5500000000014196 0  -0.1 0.500000000001539 0  -0.1 0.4500000000014195 0  -0.1 0.4000000000013 0  -0.1 0.3500000000011588 0  -0.1 0.3000000000010178 0  -0.1 0.2500000000008986 0  -0.1 0.2000000000007579 0  -0.1 0.1500000000006174 0  -0.1 0.1000000000005272 0  -0.1 0.05000000000040083 0  -0.1 2.671196597248127e-13 0  -0.1 -0.0499999999998666 0  -0.0500000000000906 -0.1 0  -1.730560139634463e-13 -0.1 0  0.04999999999975802 -0.1 0  0.09999999999961506 -0.1 0  0.1499999999994613 -0.1 0  0.199999999999302 -0.1 0  0.2499999999991446 -0.1 0  0.2999999999990088 -0.1 0  0.3499999999988296 -0.1 0  0.3999999999986936 -0.1 0  0.4499999999985143 -0.1 0  0.4999999999984002 -0.1 0  0.5499999999985247 -0.1 0  0.5999999999986493 -0.1 0  0.6499999999987955 -0.1 0  0.6999999999989417 -0.1 0  0.7499999999990659 -0.1 0  0.7999999999992116 -0.1 0  0.8499999999993573 -0.1 0  0.8999999999994526 -0.1 0  0.949999999999584 -0.1 0  0.9999999999997226 -0.1 0  1.049999999999861 -0.1 0  1.1 -0.0500000000000906 0  1.1 -1.730560139634463e-13 0  1.1 0.04999999999975802 0  1.1 0.09999999999961506 0  1.1 0.1499999999994613 0  1.1 0.199999999999302 0  1.1 0.2499999999991446 0  1.1 0.2999999999990088 0  1.1 0.3499999999988296 0  1.1 0.3999999999986936 0  1.1 0.4499999999985143 0  1.1 0.4999999999984002 0  1.1 0.5499999999985247 0  1.1 0.5999999999986493 0  1.1 0.6499999999987955 0  1.1 0.6999999999989417 0  1.1 0.7499999999990659 0  1.1 0.7999999999992116 0  1.1 0.8499999999993573 0  1.1 0.8999999999994526 0  1.1 0.949999999999584 0  1.1 0.9999999999997226 0  1.1 1.049999999999861 0  1.05000000000004 1.1 0  1.000000000000079 1.1 0  0.9500000000001624 1.1 0  0.9000000000003032 1.1 0  0.850000000000444 1.1 0  0.8000000000005848 1.1 0  0.7500000000007256 1.1 0  0.7000000000008665 1.1 0  0.6500000000010508 1.1 0  0.6000000000012352 1.1 0  0.5500000000014196 1.1 0  0.500000000001539 1.1 0  0.4500000000014195 1.1 0  0.4000000000013 1.1 0  0.3500000000011588 1.1 0  0.3000000000010178 1.1 0  0.2500000000008986 1.1 0  0.2000000000007579 1.1 0  0.1500000000006174 1.1 0  0.1000000000005272 1.1 0  0.05000000000040083 1.1 0  2.671196597248127e-13 1.1 0  -0.0499999999998666 1.1 0  0.4745627155412561 0.4979658845976656 0  0.4950518285166059 0.4855573497244656 0  0.4999049928296436 0.4616188779834038 0  0.4999416100186353 0.4369305106878516 0  0.4992063803530374 0.4122537295451063 0  0.4973369912776078 0.3876382608828895 0  0.4938799492255223 0.3631985225279867 0  0.4879793387199136 0.3392426188426588 0  0.477708527829928 0.3168733523934912 0  0.4590714687604882 0.301404724837102 0  0.434732780228735 0.3022762989845696 0  0.41125555005019 0.3098702632470292 0  0.3884680402211078 0.3193637173486848 0  0.3661420054562071 0.3299011319871626 0  0.3441795831188528 0.3411780445066411 0  0.3225396544917435 0.3530624832975365 0  0.301215464402485 0.3655046196410723 0  0.2802311253773791 0.3785115313273795 0  0.2596524751657515 0.3921505807115663 0  0.2396257266562892 0.4065860116455786 0  0.2205171769333943 0.4222095709991691 0  0.2037978766498827 0.4402946996369004 0  0.2078087354862039 0.4611241985337589 0  0.2302246550721581 0.4712872327621356 0  0.2540170674673913 0.4778513776835257 0  0.2781896321779924 0.4828648162257614 0  0.3025388098521794 0.4869426971314142 0  0.3269901839377751 0.4903579357693211 0  0.3515089775387092 0.4932512724458387 0  0.3760767857581023 0.495694413889107 0  0.4006835645647465 0.4977074124167739 0  0.4253247457275192 0.4992401053758528 0  0.4778594566747522 0.401442223102556 0  0.3642031605696663 0.3551455304476633 0  0.3931253119911016 0.4749663001317488 0  0.301391087815591 0.3891909418324636 0  0.3405191146680043 0.4716067291990176 0  0.4085088128259829 0.3358218225302407 0  0.4383199257010764 0.478268034996534 0  0.2933158383126336 0.4647493042568133 0  0.4705011287186628 0.3555758092930785 0  0.262046410803845 0.4161288454709087 0  0.478296621298624 0.4481523765235133 0  0.4509985757435829 0.3218118933227149 0  0.2476156101392002 0.4542878672072901 0  0.2254440382838642 0.4465078410918185 0  0.4767034898580974 0.4722214708558077 0  0.4538062455404542 0.4595381477025817 0  0.4590454097941081 0.4338641038279472 0  0.4365261566776522 0.4419487466470775 0  0.4400546699554884 0.4183850274405355 0  0.4174526499407784 0.4262663052266684 0  0.4216449604545715 0.4019633174161013 0  0.3985655157976514 0.4103762535778908 0  0.4028015094748328 0.386040885796719 0  0.3796547466541822 0.3945517710442402 0  0.3754336355219892 0.418849626595026 0  0.356480706262351 0.4030570620938904 0  0.425950910278646 0.377520368681432 0  0.352548564952613 0.4270242418641961 0  0.3343638539532 0.4116745963430576 0  0.3307714015247585 0.4344618615043583 0  0.3711008730457676 0.44307135827674 0  0.3392287173618115 0.3881401631227276 0  0.3124702543322179 0.4200967859847136 0  0.4114117750559009 0.4522354727907684 0  0.4064787425095928 0.3615498651030583 0  0.4278036338942951 0.3527711224825818 0  0.4433219400524784 0.3950998567471496 0  0.3943955331988769 0.4346545308483178 0  0.4509537719158622 0.3712162011600971 0  0.3835561940930367 0.3704375866309364 0  0.3609814799060368 0.3792631547343511 0  0.3672404946492186 0.4689805786970846 0  0.3168649185378783 0.4686708691728355 0  0.4165076876140927 0.4771472337656302 0  0.2810048199582057 0.4016672236312642 0  0.2870147599064629 0.4248956534750974 0  0.3862261592792656 0.345369942341291 0  0.3080157283408111 0.4448742769214047 0  0.2703248330441222 0.4608735987556387 0  0.2432762156876432 0.4307838757262447 0  0.3419587485632274 0.365176024313821 0  0.4755444649001365 0.3782660524650019 0  0.4791355219669999 0.4243141036751382 0  0.3497623534188233 0.4496360836027524 0  0.2644083313092664 0.4389831179427027 0  0.4674735929810542 0.3363935811516868 0  0.321126160836723 0.3763114756635082 0  0.4305799577726617 0.3285026054122711 0  0.3885900461240224 0.4546378933343884 0  0.4499447049192908 0.3463796929084879 0  0.4603887212884598 0.4113584096059502 0  0.2846158981826593 0.4468751902703314 0  0.3185490241148747 0.3982120658855813 0  0.4305939059509261 0.4609622322386688 0  0.4581760366322798 0.4817922291542369 0  0.3291867032980551 0.4538499640800737 0  0.4616136709663378 0.3914765486161509 0  0.2982158265402535 0.4072602982361838 0  0.5090313857056089 0.3461826794894803 0  0.5207022197779424 0.425978498220816 0  0.311713814997743 0.5079795496359276 0  0.4643475147610384 0.5187461731151921 0  0.9490142133840682 0.6783797956691668 0  0.6216214340861579 0.9593311716324814 0  0.3866368735689306 0.5180109320576665 0  0.9587660418685475 0.5227189777819765 0  0.9506648297369857 0.2707104918276887 0  0.2748561214832899 0.9505349779686312 0  0.3011023844413945 0.3408163145155499 0  0.3683228269886306 0.3041092451381056 0  0.4250000000017684 0.9566987298106073 0  0.2375845333238263 0.4917938393817739 0  0.04958979007524958 0.7296760041911728 0  0.6770568288393941 0.04297506912771516 0  0.2356184911970147 0.382214647822909 0  0.5173645605066 0.4787597690959727 0  0.7758951512500023 0.9594095551159301 0  0.2231051570648525 0.03844005936112258 0  0.04245669343147786 0.2262855512044744 0  0.1978849085057508 0.4165656761206133 0  0.5283655363925812 0.04593193222645212 0  0.3779250168850821 0.04052667979493219 0  0.8249999999995391 0.04330127018933595 0  0.1867223140552792 0.4539791991101284 0  0.4194429089130199 0.2881270580811818 0  0.04537506353618583 0.5748409264035662 0  0.9599193315071579 0.8266072906869175 0  0.03997307772613013 0.3242713413778047 0  0.5133551942209446 0.5017228266917565 0  0.5357944461513422 0.4951955469680229 0  0.5325113093200678 0.5177463975824047 0
[...]
<PointData  Scalars="u"> 
<DataArray  type="Float64"  Name="u"  format="ascii">0.0000000000000000e+00  0.0000000000000000e+00  0.0000000000000000e+00  0.0000000000000000e+00  0.0000000000000000e+00  0.0000000000000000e+00  0.0000000000000000e+00  0.0000000000000000e+00  2.0888954528702187e-02  0.0000000000000000e+00  0.0000000000000000e+00  0.0000000000000000e+00  0.0000000000000000e+00  0.0000000000000000e+00  0.0000000000000000e+00  0.0000000000000000e+00  0.0000000000000000e+00  0.0000000000000000e+00  0.0000000000000000e+00  0.0000000000000000e+00  0.0000000000000000e+00  0.0000000000000000e+00  0.0000000000000000e+00  0.0000000000000000e+00  0.0000000000000000e+00  0.0000000000000000e+00  0.0000000000000000e+00  0.0000000000000000e+00  0.0000000000000000e+00  0.0000000000000000e+00  0.0000000000000000e+00  0.0000000000000000e+00  0.0000000000000000e+00  0.0000000000000000e+00  0.0000000000000000e+00  0.0000000000000000e+00  0.0000000000000000e+00  0.0000000000000000e+00  0.0000000000000000e+00  0.0000000000000000e+00  0.0000000000000000e+00  0.0000000000000000e+00  0.0000000000000000e+00  0.0000000000000000e+00  0.0000000000000000e+00  0.0000000000000000e+00  0.0000000000000000e+00  0.0000000000000000e+00  0.0000000000000000e+00  0.0000000000000000e+00  0.0000000000000000e+00  0.0000000000000000e+00  0.0000000000000000e+00  0.0000000000000000e+00  0.0000000000000000e+00  0.0000000000000000e+00  0.0000000000000000e+00  0.0000000000000000e+00  0.0000000000000000e+00  0.0000000000000000e+00  0.0000000000000000e+00  0.0000000000000000e+00  0.0000000000000000e+00  0.0000000000000000e+00  0.0000000000000000e+00  0.0000000000000000e+00  0.0000000000000000e+00  0.0000000000000000e+00  0.0000000000000000e+00  0.0000000000000000e+00  0.0000000000000000e+00  0.0000000000000000e+00  0.0000000000000000e+00  0.0000000000000000e+00  0.0000000000000000e+00  0.0000000000000000e+00  0.0000000000000000e+00  0.0000000000000000e+00  0.0000000000000000e+00  0.0000000000000000e+00  0.0000000000000000e+00  0.0000000000000000e+00  0.0000000000000000e+00  0.0000000000000000e+00  0.0000000000000000e+00  0.0000000000000000e+00  0.0000000000000000e+00  0.0000000000000000e+00  0.0000000000000000e+00  0.0000000000000000e+00  0.0000000000000000e+00  0.0000000000000000e+00  0.0000000000000000e+00  0.0000000000000000e+00  0.0000000000000000e+00  0.0000000000000000e+00  0.0000000000000000e+00  0.0000000000000000e+00  0.0000000000000000e+00  0.0000000000000000e+00  0.0000000000000000e+00  0.0000000000000000e+00  0.0000000000000000e+00  0.0000000000000000e+00  0.0000000000000000e+00  0.0000000000000000e+00  0.0000000000000000e+00  0.0000000000000000e+00  0.0000000000000000e+00  0.0000000000000000e+00  0.0000000000000000e+00  0.0000000000000000e+00  0.0000000000000000e+00  0.0000000000000000e+00  0.0000000000000000e+00  0.0000000000000000e+00  0.0000000000000000e+00  0.0000000000000000e+00  0.0000000000000000e+00  0.0000000000000000e+00  0.0000000000000000e+00  0.0000000000000000e+00  0.0000000000000000e+00  0.0000000000000000e+00  0.0000000000000000e+00  0.0000000000000000e+00  0.0000000000000000e+00  0.0000000000000000e+00  0.0000000000000000e+00  0.0000000000000000e+00  0.0000000000000000e+00  0.0000000000000000e+00  0.0000000000000000e+00  0.0000000000000000e+00  0.0000000000000000e+00  0.0000000000000000e+00  0.0000000000000000e+00  0.0000000000000000e+00  0.0000000000000000e+00  0.0000000000000000e+00  0.0000000000000000e+00  0.0000000000000000e+00  0.0000000000000000e+00  0.0000000000000000e+00  0.0000000000000000e+00  0.0000000000000000e+00  0.0000000000000000e+00  0.0000000000000000e+00  0.0000000000000000e+00  0.0000000000000000e+00  0.0000000000000000e+00  0.0000000000000000e+00  0.0000000000000000e+00  0.0000000000000000e+00  0.0000000000000000e+00  0.0000000000000000e+00  0.0000000000000000e+00  0.0000000000000000e+00  0.0000000000000000e+00  0.0000000000000000e+00  0.0000000000000000e+00  0.0000000000000000e+00  0.0000000000000000e+00  0.0000000000000000e+00  0.0000000000000000e+00  0.0000000000000000e+00  0.0000000000000000e+00  0.0000000000000000e+00  0.0000000000000000e+00  0.0000000000000000e+00  0.0000000000000000e+00  0.0000000000000000e+00  0.0000000000000000e+00  0.0000000000000000e+00  0.0000000000000000e+00  0.0000000000000000e+00  0.0000000000000000e+00  7.1207101856997756e-03  -5.5582735250636985e-04  1.0668817970418390e-02  2.0210339746549979e-02  2.5732757749989042e-02  2.7836309112304343e-02  2.6929510596795641e-02  2.3541502784065031e-02  1.9474319574719526e-02  1.9559127934275739e-02  3.2044900642132328e-02  4.3828214397844741e-02  5.2779744223942458e-02  5.9272511637215128e-02  6.2817170331706279e-02  6.3604561110341976e-02  6.1785617273645448e-02  5.7455423413314513e-02  5.0926723975661205e-02  4.2317947698225548e-02  3.1779000641632860e-02  1.7975155526499316e-02  1.5891595658713755e-02  2.7010893858563013e-02  3.5504896051743645e-02  4.2337063405168948e-02  4.7321253461784070e-02  4.9924599352105484e-02  5.0162897900751305e-02  4.7447118045405128e-02  4.1543640851300100e-02  3.2275453622563684e-02  5.4361767333160019e-02  8.4364000821093146e-02  7.1218034305465749e-02  8.0324344150146110e-02  7.4866837584979834e-02  7.1667033942577146e-02  5.2986197444656498e-02  6.7645083441365106e-02  5.2333778883539898e-02  6.5269801032953365e-02  4.4188422162343345e-02  4.7016905439004011e-02  5.1730533122462223e-02  3.9818973770266879e-02  3.2242459747668407e-02  5.7835276409356602e-02  6.5384863028004475e-02  7.6501621833124145e-02  8.1514104258690059e-02  9.0712284213720337e-02  9.1969428226515784e-02  9.9017207673469540e-02  9.6223970422187180e-02  1.0084658461354612e-01  1.0110912248457811e-01  1.0089503813781141e-01  8.6745066245851793e-02  9.8827636238554256e-02  9.7178711252319847e-02  9.3232381941594569e-02  9.4434892553296235e-02  9.4939727367864546e-02  9.0279521535786139e-02  8.2738230366167176e-02  8.7290890335480764e-02  7.6857410176101329e-02  8.0841569670334193e-02  9.4917328807795576e-02  7.2284086977350226e-02  9.3989388909192492e-02  9.6316876981991387e-02  7.9402254228420052e-02  7.2520476444420612e-02  6.3023793466053663e-02  7.3463269407362877e-02  7.9571332009427495e-02  7.9932032574996204e-02  8.3685958782062086e-02  6.0092722010287314e-02  5.4244332136067393e-02  8.5079042176025577e-02  5.4417369229073809e-02  5.0670765366223940e-02  9.0688715451271273e-02  6.6018344707874613e-02  4.4908658691994549e-02  8.3555804103041711e-02  6.1203819782619628e-02  8.6568358189060182e-02  6.3061876196554234e-02  6.9020177732410176e-02  7.3303468726737542e-02  9.0900406728457436e-02  6.9381747282313389e-02  3.8064376730084830e-02  8.4962602689064026e-02  6.8036453770370126e-02  8.3763111043030095e-02  5.6441721208415905e-04  -5.7592584294410172e-03  2.3138394590557502e-02  -1.0923832851270686e-02  -4.2889926562466561e-02  -3.6694729382649387e-02  1.5537928037727151e-02  -3.7825178703270998e-02  -3.7205206105972471e-02  -3.6280219158867213e-02  3.8274491026945454e-02  3.0598222760027039e-02  -3.7086213740071067e-02  1.1900153987992887e-02  -3.1242003133217601e-02  -3.1266656812412592e-02  2.4532738148372139e-02  -2.0922685571632165e-02  -3.2726530715901175e-02  -1.9176327180132503e-02  -1.8619954040880848e-02  9.5930751877908813e-03  -2.7926718948288343e-02  -2.1430390244118275e-02  -2.7978695066690224e-02  1.0166415573644423e-03  1.7626549272253371e-02  -2.3315408786797352e-02  -2.9282714241865956e-02  -1.6004978679373526e-02  -3.0687941869047886e-02  -4.3634724039614312e-02  -5.1793115743022457e-02  -6.1721500934065823e-02  -6.8933813916473879e-02  -7.7160036527280831e-02  -8.3852861613230953e-02  -9.0409328352664714e-02  -9.6356359008058667e-02  -9.0421273554254986e-02  -8.5191838698465874e-02  -1.0163800959078788e-01  -9.6854949445479829e-02  -1.0235749866320723e-01  -1.0583863294845490e-01  -1.0208940981795535e-01  -1.0872372172219349e-01  -1.1155184536436914e-01  -1.0545678739360821e-01  -9.8336305439378435e-02  -1.0223082648450053e-01  -9.5016657627012446e-02  -9.9178819267592797e-02  -9.2242028815378380e-02  -9.6262450641682401e-02  -8.9804254387819749e-02  -1.1220844020559939e-01  -1.1424517049117418e-01  -9.3441670692789344e-02  -8.7790373752710316e-02  -1.0364514738586882e-01  -1.1274456859522507e-01  -1.1378777247483726e-01  -9.0570368781007118e-02  -8.5953783636742484e-02  -1.1020236893480320e-01  -1.1014910584506629e-01  -1.1316116877490280e-01  -8.0100121158738810e-02  -7.9427335057616483e-02  -8.3634023715844913e-02  -7.8081807225802130e-02  -8.0465459478514328e-02  -1.0801111975152830e-01  -1.1038497770312337e-01  -7.1459225273062116e-02  -7.1193674812426569e-02  -1.0860863667852287e-01  -8.2623518776908544e-02  -6.3183970182887864e-02  -6.3476091516103963e-02  -9.3092961816315697e-02  -1.0339109361710015e-01  -2.4600982885314319e-02  -9.9764683506736257e-02  -3.6984169515808768e-02  -3.5286459180103244e-02  -2.8725963633976764e-02  -2.7754878811905793e-02  -6.1070244611480182e-02  -3.4412807573337896e-03  -1.0765187633846486e-02  -1.5269059879961066e-02  -1.9123710093579913e-02  -1.6137292144931491e-02  -2.3746604181448472e-02  -5.8736870435535944e-02  -1.0369083442111665e-01  -6.9267063769271747e-02  -8.9098719069392096e-02  -1.8055364680271923e-02  -6.1765271063740433e-02  -1.0111420439020934e-01  -5.4821146182301994e-02  -2.1469932671218332e-02  -3.0209094088960275e-02  -9.3683250324338968e-02  -6.5122684557100130e-02  -8.8361924849099743e-02  -2.1734807284595637e-02  -1.8971791219342962e-02  -1.1448261851594060e-01  -1.1099211630916145e-01  -1.0486929807115472e-01  -1.0480715642190865e-01  -1.0992043867558625e-01  -1.0366432528014947e-01  -1.0815198955698768e-01  -1.0185414310399758e-01  -1.0579845319086310e-01  -9.9317429339463997e-02  -1.0303816904142347e-01  -9.6481963731115644e-02  -1.0009246283283588e-01  -1.0305029768728527e-01  -1.0022439791347325e-01  -9.7004669135170890e-02  -9.7369285193340177e-02  -9.7142133079909793e-02  -9.4623024594260752e-02  -9.4217139036705325e-02  -9.1784453345837513e-02  -9.0418655410166096e-02  -8.8187408171330972e-02  -8.6943162389884421e-02  -8.5868956140490740e-02  -8.3741934564460385e-02  -4.7655226874573813e-03  -8.0442132700277558e-02  -8.1127921776128958e-02  -7.7770667499227258e-02  -7.3080067858724798e-02  -7.0999228436840728e-02  -6.5597250234826446e-02  -7.8470752484418912e-02  -8.9913033503800713e-02  -6.4589839192993090e-02  -6.3968358867096606e-02  -5.7875671556466564e-02  -8.8459975780800712e-02  -8.3236609170912593e-02  -9.5298180869547972e-02  -2.6177108706718605e-02  -8.8540758986904569e-02  -8.1354574720719247e-02  -1.0893745615001538e-01  -5.4670917705311028e-03  -1.9767591994680995e-02  -1.9770738035857969e-02  -2.2289066420893892e-02  -8.4380689638936232e-02  -9.3439677410489183e-02  -1.5085886063782391e-02  -1.8635247873582058e-02  -1.5606230177716372e-02  -5.6219051230298668e-02  -8.9574171984412879e-02  -6.6857306999831959e-02  -9.7336091671138422e-02  -2.1767857839021690e-02  -9.3322345086693584e-02  -5.7257418374207988e-02  -5.6852340198870456e-02  -5.1930965567607498e-02  -5.2457658102713536e-02  -8.5201053030215287e-02  -8.9105960585045232e-02  -8.5929934913624301e-02  -9.1277904936297380e-02  -1.7471301963085013e-02  -4.8068920113646878e-02  -2.9841355734835904e-02  -1.9124403829665106e-02  -1.6637759173679160e-02  -2.9534041899928989e-02  -3.2947193247734229e-02  -7.9920622871406929e-02  -5.8310400889261219e-02  -6.5389641161094997e-02  -8.4580226586766519e-02  -7.4871437154418283e-02  -7.9443253094254887e-02  -6.7623682886970418e-02  -8.5750874345287498e-02  -5.6085702047247582e-02  -6.2298765839939922e-02  -3.6228713305966970e-02  -9.1258217060751656e-02  -9.3073478980562091e-02  -8.4116754144967540e-02  -8.5530478842511790e-02  -7.3611124365764474e-02  -7.4986230436972015e-02  -8.7358208120176875e-02  -5.9527788267130767e-02  -5.9732335695693729e-02  -4.3142156705769499e-02  -4.5452307937167903e-02  -6.1306638514356832e-02  -4.7945650577974668e-02  -4.9921756206918057e-02  -4.6517587557157888e-02  -5.0902200544592748e-02  -1.8252157728839931e-02  -1.8386345600586093e-02  -3.6691633982669440e-02  -1.1360046288304274e-01  -4.4648243256331814e-02  -4.1131729911197790e-02  -4.1730858640418360e-02  -3.8565136071590081e-02  -3.4960869224540503e-02  -3.4795930672999312e-02  -2.7093904780458887e-02  -3.0470367894778944e-02  -2.0911090446610343e-02  -2.6753039911379204e-02  -3.2974015539556673e-02  -3.1217647078515799e-02  -2.3623189135820493e-02  -2.9763579217460510e-02  -2.1542290998761354e-02  -2.8799235282391755e-02  -2.0703393751574501e-02  -2.8327356509166537e-02  -3.3183175057625212e-02  -2.0941450475043297e-02  -2.8031418746166079e-02  -3.4394268611116226e-02  -2.1891808420504321e-02  -2.7366159389600173e-02  -3.1010298882800897e-02  -9.5313959053035576e-03  -9.7906869616697350e-03  -3.6505650882463068e-02  -2.4773006707681584e-02  -1.9700639051326432e-02  -7.4694058091312229e-02  -7.7798737809056467e-02  -7.8951689973449465e-02  -2.2064827958598782e-02  -1.3341826981639248e-02  -2.6022690571155385e-02  -8.3631301729625018e-02  -7.8908894066854751e-02  -7.2282790609919517e-02  -6.1720943682045684e-02  -1.4250040414643101e-02  -7.6304252166363778e-03  -2.8271841016833069e-02  -6.1635776223707237e-02  -8.2940746685790309e-02  -6.4448280179317363e-02  -4.2497424467261555e-02  -2.1847924316147665e-02  -7.9314115264380883e-02  -7.3031570834930851e-02  -7.0334750629362730e-02  -6.2786694237254137e-02  -9.9254089160231533e-03  -4.4399368062455688e-02  -3.4532867733751825e-02  -3.2543260078025889e-02  -3.4109927859325852e-02  -5.1632507717498881e-02  -5.6124326281141113e-02  -4.5013480293697061e-02  -4.6437125558360381e-02  -6.9488643008007570e-02  -6.3933129773384126e-02  -6.6362568473995673e-02  -8.2096693464161957e-02  -7.1620094321138528e-02  -8.2706810690280116e-02  -6.7780498173510936e-02  -7.8756677950853129e-02  -6.3279930429646941e-02  -7.4478133263407145e-02  -1.8822053601731059e-02  -2.8337471567051700e-02  -3.8335519581218433e-02  -1.5960355895662939e-02  -2.7889725892695495e-02  -1.3685499890092136e-02  -2.7562276464045674e-02  -1.2568533124584991e-02  -2.8236427313513494e-02  -1.2751550541931273e-02  -3.0599462201713803e-02  -1.5055638051937777e-02  -3.2409499011922173e-02  -1.8983049716203106e-02  -3.8325296101854076e-02  -2.4438344789640812e-02  -4.6076865468909781e-02  -3.7334002134993410e-02  -5.6384433272698577e-02  -4.7804958395347111e-02  -5.6468443867885854e-02  -2.9117675132679745e-02  -4.1066132129226961e-02  -5.8522966632992418e-02  -5.2797563078802595e-02  -9.2604576367847469e-02  -7.6074514891783726e-02  -1.0174273912586192e-01  -1.9039715225393192e-02  5.0952375783002357e-04  -8.8958439801544373e-03  -3.2220293261965342e-02  -3.8288941720331864e-02  -6.5304498273931602e-02  -9.2314637093423857e-03  -3.9211554790297865e-02  -1.9771975615961685e-02  -2.2415310100919742e-02  -2.1379543214946419e-02  8.1015551315773344e-05  -7.6347235522639195e-02  -9.8122485287810549e-02  2.7607011172717986e-03  -5.0969484476405313e-02  -2.2469255385865250e-02  -4.2892780446810302e-02  -5.0355968089618904e-02  -1.6660029014221832e-02  -4.8830556066065851e-02  -7.3624162804747609e-02  -2.9423810979210277e-02  -3.2256230701066049e-02  -3.5038619057581294e-02  -3.3948889343305311e-02  -2.4960945391016051e-02  -2.4815927782821337e-02  -6.5694597590356243e-02  -3.1973229527686491e-02  -4.5335254168483871e-02  -2.4056667997634517e-02  -4.1917366900338399e-02  -6.1766255740327437e-02  -3.3450258343357214e-02  -6.8392188181774279e-03  -6.5573827225131817e-02  -8.2307189220455060e-02  -6.3449620789140251e-02  -6.8324029471486178e-02  -1.6497830831298861e-02  -3.0255201104708040e-02  -7.3232023510845729e-03  -1.8860175173719799e-02  9.5554454712224735e-03  -5.6368185260180462e-02  -6.4706156697592984e-02  -4.7510895642945548e-02  -5.4159786076425291e-02  -8.2055974968354864e-04  -5.8470544429741915e-02  -6.9365451893372634e-02  -5.2670504590186788e-02  -6.2947190252840665e-02  -7.4874400843596797e-02  -6.7640367798259091e-02  -5.5196840065160534e-02  -5.7782836609838802e-02  -6.7873610592716682e-02  -4.5364162142964848e-02  -5.5858319143580713e-02  -6.4189835562201508e-02  -4.9423677646323320e-02  -5.7099523547039302e-02  -7.4538398779313869e-02  -4.1531416535996749e-02  1.7500341974689838e-02  8.1287632558577818e-03  1.2516065986498886e-02  1.0778622394802941e-03  -2.9198993395977601e-02  -7.3454187617445522e-03  4.2288342114630232e-03  5.0887244585553718e-03  2.4967782368299414e-03  1.6221354485071511e-02  1.8425765655784018e-02  -3.5042809235072488e-03  -4.2246475800966930e-02  -3.9279967033960729e-02  -4.9235971473758466e-02  -3.5133617520804031e-02  -3.4039162604739881e-02  -7.3786877089496564e-02  2.9482728886069806e-03  -4.0243364848971244e-02  -6.6244452297154144e-02  -9.6525533833211712e-03  -1.7321234185534672e-02  -2.5483036671211066e-02  -2.6669599687581990e-02  -1.8757342950520742e-02  -2.6661713747688390e-02  -3.1816324393146758e-02  -3.0400103522316313e-02  -2.3899486171915209e-02  -1.6154886060260984e-02  -3.4394551955368870e-02  -6.9349899693507563e-02  -6.9922494038999056e-02  -8.1090069525495592e-02  -8.9367725513016111e-02  -4.0771077896474772e-02  3.0603909159979983e-02  -4.3392849797116682e-02  -1.3738168950126591e-02  2.0236627465972431e-02  -9.9470928481901269e-02  -1.0179645438999183e-01  -1.0598944402792861e-01  -1.0582299543243123e-01  -1.0910185949046100e-01  -1.0298564292357831e-01  -9.9359987478141273e-02  -1.0691483117855415e-01  -1.1187571010705658e-01  -1.0989205670873796e-01  -9.3073718873110348e-02  -1.1387142100382876e-01  -4.0367383812278251e-02  -8.5005041785415694e-02  -7.4684520692287870e-02  -3.2617260440409412e-02  -5.8584373205845093e-02  -7.1232049330840555e-02  -1.0570238443414849e-01  -1.0719801052741074e-01  -3.3563456386356695e-02  -7.6524287522330550e-02  -3.8064020971232196e-02  -4.1139121854252371e-02  -6.9558208764997756e-02  -6.1680049726550439e-02  -2.4311150554090676e-02  -2.6708852891725136e-02  -3.9289346716795528e-02  -1.5618465503310117e-02  3.5627555920447709e-02  3.7551692811023586e-02  1.8993038444168213e-02  1.5782463276164629e-02  -1.0618953568543928e-01  -1.9149247039465807e-02  -2.6947286799591852e-02  -5.8790883143701934e-02  -1.1050318785514107e-01  -2.2577968527474252e-02  -3.2011064667381670e-02  -3.2293276355148962e-02  -3.0702622179455075e-02  -9.2800633147870251e-02  -2.9959447190685360e-02  -5.6917756008225830e-02  -7.7070464055592661e-02  -3.9760977675384411e-02  -3.5010955008036040e-02  -3.3602836354092773e-02  -8.1892158950294155e-02  -3.4454106197944832e-02  -2.2453096843025870e-02  -1.0437641289156552e-02  -9.2981852147500155e-02  -1.5576481577700184e-02  -8.5032286436359759e-03  -2.3833872551995920e-02  -2.4923120437316846e-02  -4.6056413301764361e-02  -2.4636668157034490e-02  -3.0667992207173336e-02  -5.3558772683927704e-02  -4.3993336789550967e-02  -3.4046872835184143e-02  -3.0657763967015170e-02  -3.8682800985661577e-04  -8.9919985904499664e-02  -2.3576925245424761e-03  -5.5054435708110430e-02  -2.6023905762297218e-02  -4.4723883551804552e-02  -1.7864290943098497e-02  3.2532581968248479e-02  -9.3278428968950680e-02  -9.4761404459620391e-02  -3.3372623384328177e-02  -4.3203091581786292e-02  -4.6671222984322636e-02  -6.1684432651514708e-02  -8.1420577391427620e-02  -9.5982324797110496e-02  -3.7266535521989927e-02  -1.1503793185199385e-01  -9.5848489972015602e-02  -6.5410847671548339e-02  -7.1166430365005404e-02  -1.1132746518696832e-01  -8.3269987645918531e-02  -9.6714763322514732e-02  -7.1100094088049001e-02  2.2891655563364106e-02  -3.4094501919994864e-02  -1.0332005356946729e-01  -9.7407067552699206e-02  -5.5673371398707511e-02  -7.3543091775719535e-02  -9.2053560013800953e-02  -7.9532932940124895e-02  -9.6680187406380375e-02  -8.3324564008894417e-02  -8.3749764511624664e-02  -1.0451133205351087e-01  -1.0054388998456650e-01  -2.2356217088752663e-02  -2.0375070777319447e-02  -5.7213847859039636e-02  5.3009387352940304e-03  -8.7403867890927328e-02  -3.43