<?xml version="1.0"?>
<VTKFile type="UnstructuredGrid"  version="0.1"  >
<UnstructuredGrid>
<Piece  NumberOfPoints="1078" NumberOfCells="2058">
<Points>
<DataArray  type="Float64"  NumberOfComponents="3"  format="ascii">0 0 0  0 1 0  1 1 0  1 0 0  1.1 -0.1 0  -0.1 -0.1 0  1.1 1.1 0  -0.1 1.1 0  0.5281992941240889 0.5880595059687849 0  0 0.9499999999997918 0  0 0.8999999999995836 0  0 0.8499999999996529 0  0 0.7999999999999998 0  0 0.7500000000003466 0  0 0.7000000000006934 0  0 0.6500000000010401 0  0 0.6000000000013869 0  0 0.5500000000017335 0  0 0.5000000000020587 0  0 0.4500000000018723 0  0 0.4000000000016644 0  0 0.3500000000014564 0  0 0.3000000000012483 0  0 0.2500000000010403 0  0 0.2000000000008322 0  0 0.1500000000006241 0  0 0.100000000000416 0  0 0.05000000000020799 0  0.04999999999989965 0 0  0.09999999999981467 0 0  0.1499999999997036 0 0  0.1999999999995579 0 0  0.2499999999994121 0 0  0.2999999999992664 0 0  0.3499999999991206 0 0  0.3999999999989749 0 0  0.4499999999988292 0 0  0.4999999999986943 0 0  0.5499999999988151 0 0  0.5999999999989468 0 0  0.6499999999990784 0 0  0.69999999999921 0 0  0.7499999999993417 0 0  0.7999999999994734 0 0  0.8499999999996051 0 0  0.8999999999997368 0 0  0.9499999999998684 0 0  1 0.04999999999989965 0  1 0.09999999999981467 0  1 0.1499999999997036 0  1 0.1999999999995579 0  1 0.2499999999994121 0  1 0.2999999999992664 0  1 0.3499999999991206 0  1 0.3999999999989749 0  1 0.4499999999988292 0  1 0.4999999999986943 0  1 0.5499999999988151 0  1 0.5999999999989468 0  1 0.6499999999990784 0  1 0.69999999999921 0  1 0.7499999999993417 0  1 0.7999999999994734 0  1 0.8499999999996051 0  1 0.8999999999997368 0  1 0.9499999999998684 0  0.9499999999997918 1 0  0.8999999999995836 1 0  0.8499999999996529 1 0  0.7999999999999998 1 0  0.7500000000003466 1 0  0.7000000000006934 1 0  0.6500000000010401 1 0  0.6000000000013869 1 0  0.5500000000017335 1 0  0.5000000000020587 1 0  0.4500000000018723 1 0  0.4000000000016644 1 0  0.3500000000014564 1 0  0.3000000000012483 1 0  0.2500000000010403 1 0  0.2000000000008322 1 0  0.1500000000006241 1 0  0.100000000000416 1 0  0.05000000000020799 1 0  -0.1 1.05000000000004 0  -0.1 1.000000000000079 0  -0.1 0.9500000000001624 0  -0.1 0.9000000000003032 0  -0.1 0.850000000000444 0  -0.1 0.8000000000005848 0  -0.1 0.7500000000007256 0  -0.1 0.7000000000008665 0  -0.1 0.6500000000010508 0  -0.1 0.6000000000012352 0  -0.1 0.5500000000014196 0  -0.1 0.500000000001539 0  -0.1 0.4500000000014195 0  -0.1 0.4000000000013 0  -0.1 0.3500000000011588 0  -0.1 0.3000000000010178 0  -0.1 0.2500000000008986 0  -0.1 0.2000000000007579 0  -0.1 0.1500000000006174 0  -0.1 0.1000000000005272 0  -0.1 0.05000000000040083 0  -0.1 2.671196597248127e-13 0  -0.1 -0.0499999999998666 0  -0.0500000000000906 -0.1 0  -1.730560139634463e-13 -0.1 0  0.04999999999975802 -0.1 0  0.09999999999961506 -0.1 0  0.1499999999994613 -0.1 0  0.199999999999302 -0.1 0  0.2499999999991446 -0.1 0  0.2999999999990088 -0.1 0  0.3499999999988296 -0.1 0  0.3999999999986936 -0.1 0  0.4499999999985143 -0.1 0  0.4999999999984002 -0.1 0  0.5499999999985247 -0.1 0  0.5999999999986493 -0.1 0  0.6499999999987955 -0.1 0  0.6999999999989417 -0.1 0  0.7499999999990659 -0.1 0  0.7999999999992116 -0.1 0  0.8499999999993573 -0.1 0  0.8999999999994526 -0.1 0  0.949999999999584 -0.1 0  0.9999999999997226 -0.1 0  1.049999999999861 -0.1 0  1.1 -0.0500000000000906 0  1.1 -1.730560139634463e-13 0  1.1 0.04999999999975802 0  1.1 0.09999999999961506 0  1.1 0.1499999999994613 0  1.1 0.199999999999302 0  1.1 0.2499999999991446 0  1.1 0.2999999999990088 0  1.1 0.3499999999988296 0  1.1 0.3999999999986936 0  1.1 0.4499999999985143 0  1.1 0.4999999999984002 0  1.1 0.5499999999985247 0  1.1 0.5999999999986493 0  1.1 0.6499999999987955 0  1.1 0.6999999999989417 0  1.1 0.7499999999990659 0  1.1 0.7999999999992116 0  1.1 0.8499999999993573 0  1.1 0.8999999999994526 0  1.1 0.949999999999584 0  1.1 0.9999999999997226 0  1.1 1.049999999999861 0  1.05000000000004 1.1 0  1.000000000000079 1.1 0  0.9500000000001624 1.1 0  0.9000000000003032 1.1 0  0.850000000000444 1.1 0  0.8000000000005848 1.1 0  0.7500000000007256 1.1 0  0.7000000000008665 1.1 0  0.6500000000010508 1.1 0  0.6000000000012352 1.1 0  0.5500000000014196 1.1 0  0.500000000001539 1.1 0  0.4500000000014195 1.1 0  0.4000000000013 1.1 0  0.3500000000011588 1.1 0  0.3000000000010178 1.1 0  0.2500000000008986 1.1 0  0.2000000000007579 1.1 0  0.1500000000006174 1.1 0  0.1000000000005272 1.1 0  0.05000000000040083 1.1 0  2.671196597248127e-13 1.1 0  -0.0499999999998666 1.1 0  0.5637440021185333 0.5814137392686757 0  0.5949374177173987 0.5591860209227277 0  0.6069285330603165 0.5229980879184013 0  0.6091753951806106 0.4869877178856263 0  0.6080230673100202 0.451521475444912 0  0.6036846322474144 0.4165686989863671 0  0.5958563941473299 0.3821571857201354 0  0.5836075979228597 0.3488196988447158 0  0.5643345020142949 0.3182277143148082 0  0.5342476745662033 0.2975039951384424 0  0.4996357440037556 0.2970797675660925 0  0.4679595106887324 0.3064180847154838 0  0.4384467301029413 0.318805235602311 0  0.4099873385639795 0.3327313858793975 0  0.3823498488544688 0.3477026456269106 0  0.3554253350718791 0.3634570430250572 0  0.3291381572237601 0.379848577133348 0  0.3035728739083429 0.3968011538805368 0  0.2786999078026526 0.4143264900182349 0  0.2547147018247002 0.4327488207973954 0  0.2322200104038976 0.4529322296095734 0  0.2134043087435503 0.4772469218995817 0  0.2179007252488357 0.506795585396732 0  0.2437553598874025 0.525827778792758 0  0.2722026547395308 0.5393998253609669 0  0.3017218025942431 0.5505423841006789 0  0.3320627010866696 0.560144111704071 0  0.3631107142781829 0.5685032793324072 0  0.394795385516983 0.5755797894312827 0  0.4271444826548216 0.5813409058425957 0  0.460095795953988 0.5857394995270219 0  0.4936929888159601 0.5882866104014437 0  0.5755902131885664 0.4379339241690919 0  0.4113006150870406 0.3695620302330062 0  0.4528370559858911 0.5502445170056944 0  0.3319811218444725 0.4145376710445793 0  0.3829243205940843 0.5414732936338589 0  0.4690460953211099 0.3438284660354539 0  0.5149045507887827 0.5549513891071803 0  0.32253959778525 0.5256199784939409 0  0.560371913083802 0.3727547437397706 0  0.283543881805602 0.4495485680407449 0  0.5757352947629426 0.5059019774060149 0  0.526599486295848 0.3254980051338205 0  0.2660696995587419 0.503628769033437 0  0.2394185123665889 0.4888362069016862 0  0.5705810909508757 0.5418478525620972 0  0.5389308139025214 0.5252351672372789 0  0.5482036710589956 0.4865545300403666 0  0.5155202896944457 0.4997745300836738 0  0.5210482693803052 0.4646197803591563 0  0.4891528659312609 0.4766595572191387 0  0.4945768592641158 0.4406355524927869 0  0.4627922002458253 0.4527291980634331 0  0.4673365949015873 0.4168747821475488 0  0.4361905898042401 0.4285111645478439 0  0.4314276398840174 0.464442065721091 0  0.4054336763486647 0.4397570709525591 0  0.4989462016381191 0.4048624550895889 0  0.4008255020440745 0.4752315687895668 0  0.3764708707321611 0.4508537812847593 0  0.3720587043665385 0.4845176787980593 0  0.4253877581294712 0.5006011786007741 0  0.3814957858634996 0.416368824390462 0  0.3481240679238036 0.4613007129725333 0  0.4798875145283014 0.51575976765525 0  0.469961490949714 0.3811392218381812 0  0.4986552453696999 0.3690413532340374 0  0.5249620902929297 0.4303863206426791 0  0.4571674892998575 0.4889149939012146 0  0.5339271471203673 0.3956786520355867 0  0.4394350162488708 0.3931452631712732 0  0.4097473948843527 0.4048305721955897 0  0.4185877824949068 0.5397042663198224 0  0.3524174493409128 0.5344465010746436 0  0.4846746439459952 0.5539167323807466 0  0.306741736415067 0.4306633864804287 0  0.3155035937593922 0.4655511688156647 0  0.4398300113470658 0.3565777565885659 0  0.3423708722521807 0.4977015491617602 0  0.2938377457779723 0.5166815964628186 0  0.2607679121481676 0.4684519175796332 0  0.382776160801708 0.3827395371275198 0  0.5704507298701148 0.404836682810708 0  0.5779939489009811 0.4709537387300609 0  0.3966451598558913 0.5090070400886491 0  0.28711810714889 0.4834478162834459 0  0.5530310801025113 0.3457640711651744 0  0.3564864629747894 0.3974337781797845 0  0.4987016882520579 0.334256826895565 0  0.4484232906477814 0.5189627108416266 0  0.5292941238102669 0.3601408181122377 0  0.5502567066116427 0.4534417119938199 0  0.3123979336081553 0.4978406839170282 0  0.3550269234031297 0.4294767071588778 0  0.5058824421164632 0.5287637078247243 0  0.5425700810903655 0.5587450691098687 0  0.3693813452046827 0.5134703965347968 0  0.5511392042692905 0.424490424737096 0  0.3291526408790228 0.4407953353230765 0  0.6043663595784384 0.3619450745525535 0  0.6250869843915849 0.469686642159957 0  0.3447969677972935 0.5812571675508108 0  0.5431683740105233 0.6007940107643253 0  0.986488884812074 0.7060626784656844 0  0.6481413655140673 0.9882946807057261 0  0.4403265650702236 0.6010868512272898 0  0.9940948758928962 0.5414394944882305 0  0.9845775777568867 0.2759374128144612 0  0.2875180521505801 0.977431071648408 0  0.3323155204104337 0.3539691919853077 0  0.4142826644446005 0.3075117430948631 0  0.4443666603977454 0.9859129813153393 0  0.2549936365138915 0.5489976766677255 0  0.05919327293415076 0.7559996067610367 0  0.7107181192908656 0.04522079413396772 0  0.2547384195350806 0.4058839710884938 0  0.6165650416937862 0.5418989411264973 0  0.8047253374073049 0.9873330834137298 0  0.2407916868929839 0.04835332903234891 0  0.05908572628896841 0.2377314411215296 0  0.2113423702798047 0.4478593356921725 0  0.5608343667776969 0.04920357228177313 0  0.4018442012825749 0.04657103149252389 0  0.8532144554989756 0.04283953735246165 0  0.1984948264691825 0.4933237482407934 0  0.4783182675619412 0.286457579522297 0  0.05512617110212832 0.6008605181705664 0  0.99014045912938 0.8528187666905025 0  0.05430205683637577 0.3372367509464553 0  0.6067117400598464 0.57107105625232 0  0.6292192137534438 0.5571307210258163 0  0.6210310311
[...]
<PointData  Scalars="u"> 
<DataArray  type="Float64"  Name="u"  format="ascii">0.0000000000000000e+00  0.0000000000000000e+00  0.0000000000000000e+00  0.0000000000000000e+00  0.0000000000000000e+00  0.0000000000000000e+00  0.0000000000000000e+00  0.0000000000000000e+00  1.7048614116280947e-01  0.0000000000000000e+00  0.0000000000000000e+00  0.0000000000000000e+00  0.0000000000000000e+00  0.0000000000000000e+00  0.0000000000000000e+00  0.0000000000000000e+00  0.0000000000000000e+00  0.0000000000000000e+00  0.0000000000000000e+00  0.0000000000000000e+00  0.0000000000000000e+00  0.0000000000000000e+00  0.0000000000000000e+00  0.0000000000000000e+00  0.0000000000000000e+00  0.0000000000000000e+00  0.0000000000000000e+00  0.0000000000000000e+00  0.0000000000000000e+00  0.0000000000000000e+00  0.0000000000000000e+00  0.0000000000000000e+00  0.0000000000000000e+00  0.0000000000000000e+00  0.0000000000000000e+00  0.0000000000000000e+00  0.0000000000000000e+00  0.0000000000000000e+00  0.0000000000000000e+00  0.0000000000000000e+00  0.0000000000000000e+00  0.0000000000000000e+00  0.0000000000000000e+00  0.0000000000000000e+00  0.0000000000000000e+00  0.0000000000000000e+00  0.0000000000000000e+00  0.0000000000000000e+00  0.0000000000000000e+00  0.0000000000000000e+00  0.0000000000000000e+00  0.0000000000000000e+00  0.0000000000000000e+00  0.0000000000000000e+00  0.0000000000000000e+00  0.0000000000000000e+00  0.0000000000000000e+00  0.0000000000000000e+00  0.0000000000000000e+00  0.0000000000000000e+00  0.0000000000000000e+00  0.0000000000000000e+00  0.0000000000000000e+00  0.0000000000000000e+00  0.0000000000000000e+00  0.0000000000000000e+00  0.0000000000000000e+00  0.0000000000000000e+00  0.0000000000000000e+00  0.0000000000000000e+00  0.0000000000000000e+00  0.0000000000000000e+00  0.0000000000000000e+00  0.0000000000000000e+00  0.0000000000000000e+00  0.0000000000000000e+00  0.0000000000000000e+00  0.0000000000000000e+00  0.0000000000000000e+00  0.0000000000000000e+00  0.0000000000000000e+00  0.0000000000000000e+00  0.0000000000000000e+00  0.0000000000000000e+00  0.0000000000000000e+00  0.0000000000000000e+00  0.0000000000000000e+00  0.0000000000000000e+00  0.0000000000000000e+00  0.0000000000000000e+00  0.0000000000000000e+00  0.0000000000000000e+00  0.0000000000000000e+00  0.0000000000000000e+00  0.0000000000000000e+00  0.0000000000000000e+00  0.0000000000000000e+00  0.0000000000000000e+00  0.0000000000000000e+00  0.0000000000000000e+00  0.0000000000000000e+00  0.0000000000000000e+00  0.0000000000000000e+00  0.0000000000000000e+00  0.0000000000000000e+00  0.0000000000000000e+00  0.0000000000000000e+00  0.0000000000000000e+00  0.0000000000000000e+00  0.0000000000000000e+00  0.0000000000000000e+00  0.0000000000000000e+00  0.0000000000000000e+00  0.0000000000000000e+00  0.0000000000000000e+00  0.0000000000000000e+00  0.0000000000000000e+00  0.0000000000000000e+00  0.0000000000000000e+00  0.0000000000000000e+00  0.0000000000000000e+00  0.0000000000000000e+00  0.0000000000000000e+00  0.0000000000000000e+00  0.0000000000000000e+00  0.0000000000000000e+00  0.0000000000000000e+00  0.0000000000000000e+00  0.0000000000000000e+00  0.0000000000000000e+00  0.0000000000000000e+00  0.0000000000000000e+00  0.0000000000000000e+00  0.0000000000000000e+00  0.0000000000000000e+00  0.0000000000000000e+00  0.0000000000000000e+00  0.0000000000000000e+00  0.0000000000000000e+00  0.0000000000000000e+00  0.0000000000000000e+00  0.0000000000000000e+00  0.0000000000000000e+00  0.0000000000000000e+00  0.0000000000000000e+00  0.0000000000000000e+00  0.0000000000000000e+00  0.0000000000000000e+00  0.0000000000000000e+00  0.0000000000000000e+00  0.0000000000000000e+00  0.0000000000000000e+00  0.0000000000000000e+00  0.0000000000000000e+00  0.0000000000000000e+00  0.0000000000000000e+00  0.0000000000000000e+00  0.0000000000000000e+00  0.0000000000000000e+00  0.0000000000000000e+00  0.0000000000000000e+00  0.0000000000000000e+00  0.0000000000000000e+00  0.0000000000000000e+00  0.0000000000000000e+00  0.0000000000000000e+00  0.0000000000000000e+00  0.0000000000000000e+00  0.0000000000000000e+00  0.0000000000000000e+00  0.0000000000000000e+00  0.0000000000000000e+00  0.0000000000000000e+00  0.0000000000000000e+00  0.0000000000000000e+00  0.0000000000000000e+00  0.0000000000000000e+00  1.5322512599668756e-01  1.4417831838370238e-01  1.5810921566752362e-01  1.7052596281770910e-01  1.7674996361733764e-01  1.7742695408059639e-01  1.7311137679428726e-01  1.6437374959153125e-01  1.5494878990292074e-01  1.5154501003841223e-01  1.6718716216548571e-01  1.8417766937902819e-01  1.9714388710721698e-01  2.0583780818746375e-01  2.0969729434111892e-01  2.0895809215430053e-01  2.0385978572405031e-01  1.9443890342134487e-01  1.8114000832057708e-01  1.6397538170835946e-01  1.4395296497367854e-01  1.2127524295011691e-01  1.2084644374082112e-01  1.4259108458782707e-01  1.6170133527405459e-01  1.7778924433860535e-01  1.9024963992805885e-01  1.9848336992171747e-01  2.0290169939464739e-01  2.0240690559734439e-01  1.9651017339684598e-01  1.8563434075005900e-01  2.2717610479695644e-01  2.5777868049792885e-01  2.5142418800299088e-01  2.4323041070850246e-01  2.4784992963992405e-01  2.4018493046280534e-01  2.2720372177337533e-01  2.2631046010227912e-01  2.1686796218203716e-01  2.1142033456872866e-01  2.1476196986514060e-01  2.0015689209021872e-01  1.8746762647741658e-01  1.6199752115687344e-01  1.9606645457144431e-01  2.3854398717356395e-01  2.5167183674892407e-01  2.7157926751809741e-01  2.7969770105395514e-01  2.9500490911392058e-01  2.9545436308435397e-01  3.0580093135977654e-01  2.9762832334038231e-01  3.0288409448825149e-01  3.0606268608481441e-01  2.9925924046514846e-01  2.8225795057244263e-01  2.9753963642581366e-01  2.8847551597753768e-01  2.8247781510789904e-01  2.9291042462087008e-01  2.7979872156845176e-01  2.7139281287258477e-01  2.7874588595201044e-01  2.7575843189846533e-01  2.5804011520879783e-01  2.7550593170920762e-01  2.9878489341281883e-01  2.5574069564253088e-01  2.8499781233001825e-01  2.8581043337659695e-01  2.6169612164196165e-01  2.3941900534714777e-01  2.4120088082910074e-01  2.2858542415247041e-01  2.4536692704044910e-01  2.5262127096432158e-01  2.5953498265736347e-01  2.0796867845825751e-01  1.8883696618510673e-01  2.5606449035372347e-01  2.2411380917093715e-01  2.2359857290393248e-01  2.8093991338613911e-01  2.1577896019876727e-01  2.0046978601047294e-01  2.5085536442795037e-01  2.2358222268911265e-01  2.8083699588413064e-01  2.3330011355674091e-01  2.5571582232275636e-01  2.3473349789527964e-01  2.6932704318222478e-01  2.5671411644182496e-01  2.0375350374260565e-01  2.6570152383938977e-01  2.5103587663304744e-01  2.5278150807452199e-01  1.4291091941802297e-01  1.4435456034504876e-01  1.6451767255165464e-01  1.3794557817582118e-01  -9.4077714618307703e-03  -7.7867462627686278e-03  1.6687018493119252e-01  -3.8204872870770015e-03  -8.6836960757439956e-03  -1.1195100628257544e-02  1.7145737918357834e-01  1.6587159764597309e-01  -7.6910160215437192e-03  1.2968770480539130e-01  -1.5109859194421447e-02  -1.3571892028473457e-02  1.4041690723921535e-01  1.2695887928637362e-01  -8.7372028293534344e-03  -8.7660746219751402e-03  -7.1874446085472684e-03  1.1018879397933572e-01  -4.8674264439448091e-03  -2.6051897779481893e-03  -1.6426214068630374e-02  9.6825080727676607e-02  1.4921555547750684e-01  -1.4097287504301856e-05  -6.6968171442639834e-03  1.2325305073895973e-03  1.1535666635480192e-01  1.0015184263100259e-01  8.9567806962990368e-02  7.6358084222299005e-02  6.6058225365316192e-02  5.4009077382248465e-02  4.3387622248761124e-02  3.2609957295836045e-02  2.1918205286166306e-02  3.1794293942328328e-02  4.0888764538501765e-02  1.1064443653454822e-02  1.8838454646875887e-02  1.0360101980179167e-02  6.2757736554017911e-04  6.2193279756806198e-03  -9.2393627188320192e-03  -1.4130024581025654e-02  -4.9870728885617792e-03  1.0490156344378122e-02  -2.2751532791668123e-03  1.2705556222966256e-02  -1.2081724943886099e-03  1.2691638637951830e-02  -1.6486978792088923e-03  1.0859512017060924e-02  -2.1505972006502089e-02  -2.5855845149253945e-02  -3.5473919901429568e-03  6.9350783534899065e-03  -1.2912515563880280e-02  -3.0982230761299398e-02  -3.4461934676910215e-02  -6.8331433066985033e-03  1.3203403442360326e-03  -3.7369750676472378e-02  -3.9759822067776777e-02  -3.6937181549778320e-02  1.8523408984757017e-02  1.0348040932981429e-02  -4.9538068648219231e-03  1.7890096389077273e-03  -1.1318911332268040e-02  -4.0803542089534066e-02  -3.8041281021638944e-02  1.9528617814234102e-02  8.5439338361126115e-03  -3.4068697978661799e-02  2.8877715561055090e-02  2.7414543523879675e-02  1.4472617843562196e-02  -1.3909868474960263e-02  -4.1798347628315628e-02  -1.5867363467691447e-02  -4.1304185656078199e-02  -7.1897592644525063e-03  -2.5162070763573613e-03  -8.5707833978946064e-03  -1.1042290083955021e-02  4.0278383444756219e-02  9.3679092172635883e-02  7.5133086116855569e-02  7.1651248535741396e-02  5.6343251404354297e-02  5.7638837352888057e-02  5.2203484945741854e-02  7.9890407048155643e-02  -3.7884373724929865e-02  -1.5930108177251827e-03  -1.6160254863244888e-02  -1.2647974670938034e-02  2.7298608506425223e-03  -3.4532947960941182e-02  3.3458944567278048e-02  6.5860507300651600e-02  4.5386379306509496e-02  -4.0711218257322976e-02  -1.0290617272212534e-02  2.8452595077776029e-02  4.1742935125090176e-02  4.4766365333795723e-02  -3.1254895683144740e-02  -3.3771695211091433e-02  -3.7086882127523146e-02  -3.3516369493138708e-02  -2.9259903698166553e-02  -2.9754979557925804e-02  -2.5104352779186212e-02  -2.6349732777252863e-02  -2.1509545955721951e-02  -2.3737442928349659e-02  -1.9159843488935742e-02  -2.2061419451249051e-02  -1.8249926980477529e-02  -1.1268120405430902e-02  -1.1432391830978231e-02  -1.8484218989862328e-02  -1.3076452046795462e-02  -2.1162324551191204e-03  -5.2732347548998170e-03  -1.5835977815330776e-02  -9.7678970128787304e-03  -1.9239166358400010e-02  -1.5008041526740696e-02  -2.3628523860211685e-03  -2.2638809881089468e-02  -9.4891084231097361e-03  1.2459176930665508e-01  5.4092162352183427e-03  1.7109641690707226e-02  -3.5622971768965901e-03  1.2555945382096379e-02  1.6496393196301939e-03  1.8076725591960496e-02  -1.4728782319391447e-02  -2.2151438288530657e-02  3.4191963903201804e-02  5.4033979464661475e-03  2.4095380405054229e-02  -1.9975177388685313e-02  -2.1018786255645145e-02  -3.0580238438220199e-02  -8.3631469815736541e-03  -3.8677227334166252e-02  -3.6796733299962026e-02  -1.6647941375291027e-02  1.1964581730516996e-01  1.0010979043674700e-01  9.4814628810178200e-02  1.0136558100714875e-01  -3.7313581136861257e-02  -3.5332493948506356e-02  5.5579128320002412e-02  3.9438627533797961e-02  5.0914174280013436e-02  8.3625007716571109e-02  -3.1585170153509805e-02  -9.8375201281055372e-03  -3.0959070777735544e-02  2.8045720046510743e-02  -1.9434344515699663e-02  -6.4028525479830189e-03  7.9443221555494173e-03  2.2538319585936630e-02  8.0275543997483691e-03  -2.2141075690732356e-02  -2.2824620820062091e-02  -2.1514775757321875e-02  -2.3113816766895608e-02  -1.2156661666281609e-02  -3.5058286850427958e-03  3.3645510243702145e-02  3.2669693567703828e-02  4.7427541115091600e-02  5.7127981945231894e-02  8.0640746621192069e-02  -2.2492993860531545e-02  -1.6208122464421545e-02  -1.9634313461016659e-02  -2.7764187394071268e-02  -3.3340083420348159e-02  -3.3467338237426592e-02  -3.0851892363667623e-02  3.8076106603796622e-02  -2.2395888787227335e-02  -2.4855060097805960e-02  2.6631092887331724e-02  9.3854033604478092e-03  1.2762540402367888e-02  2.7803434650399639e-02  3.0814287174119517e-02  4.9234314764774231e-02  5.1245135968532515e-02  3.1672383175571278e-02  7.3112370489218551e-02  6.8566976429897397e-02  9.4081980547512406e-02  8.6624654146073718e-02  6.0857751397800842e-02  7.7951946900230801e-02  8.1233169142718095e-03  2.0583489814655822e-02  -2.2319777746431135e-03  -1.1070003011896616e-02  -1.2547045338769680e-02  8.0613282605448033e-02  -1.8890185148721775e-02  3.8534112398760569e-02  3.3830629133507387e-02  1.7497951477473739e-02  2.7704714427689531e-02  4.7156052512359471e-02  3.7629971500722129e-02  6.3824772561836302e-02  4.7491073896748948e-02  7.3218532207541140e-02  5.4389364076322902e-02  3.2790748115859636e-02  3.6882892607581590e-02  5.9423242599092256e-02  3.9225779105259366e-02  6.1264592049066667e-02  3.9091388834270158e-02  5.9576061785108242e-02  3.6258807809722113e-02  2.0349906405203948e-02  5.4483360365957516e-02  3.1139771264167740e-02  1.8615849041541368e-02  4.6360151108711119e-02  2.4499808919088140e-02  1.3828912837214826e-02  9.0868896163118523e-02  8.2426706353965248e-02  1.8993397448009708e-02  1.0323483531924603e-01  2.1883504118595635e-02  -1.9054203926910887e-02  -2.0815012601516039e-02  -2.9375405729032369e-02  3.7621102327443624e-02  6.5248185873288442e-02  1.6169486005779218e-02  -1.5603625479234946e-02  -1.9932610546213952e-02  -2.0615106919936597e-02  5.3738387195095466e-02  9.1424680993977714e-02  1.0103282955432608e-01  1.1172235561503174e-01  7.3164481543450954e-02  -3.3146154465774881e-02  -2.4344054328637777e-02  7.6941140220704224e-02  -7.9099128636272061e-03  -2.1718004912082971e-02  -2.3966850113139281e-02  -2.3017163145343311e-02  -2.3306899673121634e-02  6.8528268821182736e-02  6.2640281196537653e-02  1.5410478419123090e-02  5.3186545652960859e-03  6.5743727546405360e-03  -2.4798426324087283e-02  -2.5947943156832014e-02  -2.3988964801998761e-02  -2.3304580411786520e-02  -2.8343745079332284e-02  -2.6638151886565393e-02  -2.5641476517545746e-02  -3.2152427928569711e-02  -1.8126422341419084e-02  -2.1111403269457724e-02  -1.7692982340542340e-02  -2.1387101227860833e-02  -1.7684207594344050e-02  -2.2312939567794794e-02  7.8901451601235975e-02  6.8183087835232373e-02  4.6709810151839358e-02  9.1467032620140776e-02  7.6725676896107389e-02  1.0234598591889356e-01  8.4725668880230448e-02  1.1048618926232949e-01  9.0576974176679551e-02  1.1641691043228744e-01  9.3180638164640311e-02  1.1883213326494234e-01  9.6116690907263699e-02  1.1847200077428445e-01  9.2722352679264194e-02  1.1566597487428290e-01  8.5939335577056367e-02  1.0137460399808519e-01  7.4387449333864528e-02  8.9362453213439275e-02  6.6324369036228015e-02  1.1451998657079140e-01  1.0049694561797409e-01  7.6179578597821068e-02  8.6190477199558246e-02  -2.7649695333289859e-02  -2.3479657697746150e-02  -2.7328261445960060e-02  1.6987491157263793e-02  1.4275981773088525e-01  1.1052996130730394e-01  1.7605266256173265e-02  1.1307114339634609e-02  -2.0938241934523094e-02  7.0959953427695024e-02  6.9972401385490171e-02  1.2580304540833719e-02  1.2966972810022567e-02  8.6724272172217842e-02  1.1819065484795009e-01  -1.7327840239407727e-02  -1.9565868352021905e-02  1.2891419526642606e-01  -1.8274495974556486e-02  2.3129199715470190e-02  -2.1109726158802408e-02  -1.7832576824358504e-02  1.2873649979157803e-01  -1.0753611028806486e-02  3.7876135391268093e-02  -2.2183159648568903e-03  -2.3839608057926219e-03  6.9727169931882594e-03  -3.2791739476679734e-03  -3.8159296481860812e-03  1.1935214887733235e-01  -2.5642236400894271e-02  1.0216624705180716e-01  7.3181749776782309e-02  1.2323267446372442e-01  6.0564226783707938e-02  -1.7867040392030350e-02  -1.9467905849730325e-02  1.4266440469312494e-01  -2.3064001146169383e-02  -2.9440946169140690e-02  -2.0142592235108475e-02  6.3670419167184106e-02  1.3275572743174577e-01  1.1571290934194295e-01  1.0775804836103740e-01  8.6470020091385144e-02  1.3221230736545977e-01  -1.9843078351517402e-02  -2.0685974590973131e-02  -1.8470153081206562e-02  -2.2475610573403557e-02  1.1103602887641484e-01  -1.8053139978766300e-02  -2.3433818821845129e-02  -1.8177172360306765e-02  -2.4117406708591426e-02  -2.6786539171064588e-02  -2.7686140447236888e-02  -2.3988634275608510e-02  -2.6979878578405170e-02  -2.8444549804522976e-02  -2.2130347586485723e-02  -2.6788316863747288e-02  -2.6671662328487594e-02  -2.3763935002466832e-02  -2.3142121528499329e-02  -2.6224771950095139e-02  9.9619306381779030e-02  1.2583737371633510e-01  1.1047527144579659e-01  1.2097645967333605e-01  9.4716279294553937e-02  7.4144948315849515e-02  9.1486668619890729e-02  1.1599930819242418e-01  1.1397928736431909e-01  1.0572615534005587e-01  1.3236213050769910e-01  1.4001589833877023e-01  1.3342656279412529e-01  -8.8300462451442537e-04  -6.8526081923590285e-03  -1.0147852577422272e-02  4.2424941575263774e-04  -1.0313323370621855e-02  2.3324146164616678e-02  1.4978243457331586e-01  -6.8631323883718226e-03  -1.9409276363959758e-02  7.8467635010300754e-02  -2.9002318722120743e-03  5.9537097048522453e-04  -6.6300515584313442e-03  -1.0646924273987423e-02  -1.1498096324183594e-02  -5.2782141819316232e-03  -1.1646558184653917e-02  -1.3753619100101519e-02  -1.2868151764161562e-02  -2.6956563537306093e-03  3.3484893523534655e-02  4.0216261550856593e-02  2.4848322579680723e-02  4.3612089462977070e-03  -1.9114178046192660e-02  1.5335040751158691e-01  1.8868413503751288e-02  5.9812348084919739e-02  1.5198159376110743e-01  -2.0292751327048391e-04  1.3327331917538361e-03  -1.2675829685327605e-02  -4.1448312784767415e-03  -9.5629004507948503e-03  6.3621465523254058e-03  1.1261219575656765e-02  -6.4224659493068432e-04  -1.5491334670609305e-02  -7.0372760063097698e-03  2.6074031144812455e-02  -2.1072216307738142e-02  1.0392655506063413e-01  3.0052345352510848e-02  5.0832802079558467e-02  -8.2823506043058943e-03  -1.3706241613847755e-02  4.5467324078678033e-02  -3.0520064013743676e-02  -2.3050203952276780e-02  -1.7265647363564941e-02  -2.7700206020005003e-02  -7.6405210533096891e-03  -9.3753708200359897e-03  -2.2907708942976234e-02  -1.8800954721087487e-02  -5.2489099000693580e-03  -9.6859222727299198e-03  -1.3413046251135843e-02  8.1359088069647187e-02  1.7187727658450730e-01  1.7283584118476819e-01  1.4354835575177016e-01  1.4037178487300342e-01  2.1860884349867767e-03  -1.1102616550317532e-02  -1.2415538677387209e-02  -1.7112805432142820e-02  -2.7180724774426533e-02  -2.0640028515812904e-03  5.0446555413497978e-03  2.6325970548424435e-03  -1.6826952362215278e-02  2.3821758059164266e-02  2.8675270165286712e-03  3.9254629419667300e-02  5.0821398639456068e-02  -5.4031011747180009e-03  -7.5881820740006344e-03  -8.2131141894906824e-03  -2.5074754538063168e-02  9.3732706531350185e-02  -1.5109155186249862e-02  8.7293253324858724e-02  -3.8323756290707597e-02  7.4437927376014706e-03  7.5512529180617363e-02  -8.5805951655794094e-03  4.0856498995491222e-02  -1.5237418867040456e-02  -1.4867227984261815e-02  -9.1964828813775219e-03  -2.3137753572226475e-02  -1.9179175699801276e-02  -1.4768089437824150e-02  7.8457850313530669e-02  9.4938127669048883e-02  -2.1806727013895834e-02  1.4283079907651922e-01  1.9480368015563312e-02  -7.3793483956141647e-03  -1.9040162845321243e-02  3.4094201203438367e-03  1.5990400661263632e-01  -2.1425527794059197e-02  1.4821046159549902e-02  -5.2149180756479790e-03  -2.3076687206246404e-02  -1.8167693258434914e-02  -1.5831450208641892e-02  -2.3441271930834180e-02  -3.3843350187299184e-02  -8.5408971210262623e-03  -2.9661216664898515e-02  -4.0339212551850530e-02  6.9895791346196015e-02  5.1575271439082498e-02  -2.1301180607283299e-02  -2.7564905165369986e-02  -2.4847685606760792e-02  -3.2079476131333683e-02  1.6924828722364074e-01  2.0953977296183306e-02  -3.9895145577138663e-02  1.9419036016088409e-02  -1.7140624546813914e-02  -2.5370886529116347e-02  -2.4910126433712935e-02  -2.1600925579696877e-02  -1.2242966064649204e-02  -1.9005844539257015e-02  2.1836340507888980e-02  -4.0434923481638456e-02  -1.2310709600508731e-02  8.0083679785349637e-03  1.4007762722416004e-02  5.8918928388310261e-02  1.2014287888496213e-01  -1.1085132409083610e-02  1.1037788657896289e-01  9.5856552202939316e-02  7.3329927192173558e-02  -1.7559813716007518e-02  -1.0465624552271954e-02  -1.5922007082136612e-02  -6.0917570881979174e-03  -9.3660746334826919e-03  -9.7584600359789438e-03  -9.0794302892607363e