<?xml version="1.0"?>
<VTKFile type="UnstructuredGrid"  version="0.1"  >
<UnstructuredGrid>
<Piece  NumberOfPoints="1181" NumberOfCells="2264">
<Points>
<DataArray  type="Float64"  NumberOfComponents="3"  format="ascii">0 0 0  0 1 0  1 1 0  1 0 0  1.1 -0.1 0  -0.1 -0.1 0  1.1 1.1 0  -0.1 1.1 0  0.5504770438994886 0.5450918675942771 0  0.6144022078738959 0.7238656392391787 0  0 0.9499999999997918 0  0 0.8999999999995836 0  0 0.8499999999996529 0  0 0.7999999999999998 0  0 0.7500000000003466 0  0 0.7000000000006934 0  0 0.6500000000010401 0  0 0.6000000000013869 0  0 0.5500000000017335 0  0 0.5000000000020587 0  0 0.4500000000018723 0  0 0.4000000000016644 0  0 0.3500000000014564 0  0 0.3000000000012483 0  0 0.2500000000010403 0  0 0.2000000000008322 0  0 0.1500000000006241 0  0 0.100000000000416 0  0 0.05000000000020799 0  0.04999999999989965 0 0  0.09999999999981467 0 0  0.1499999999997036 0 0  0.1999999999995579 0 0  0.2499999999994121 0 0  0.2999999999992664 0 0  0.3499999999991206 0 0  0.3999999999989749 0 0  0.4499999999988292 0 0  0.4999999999986943 0 0  0.5499999999988151 0 0  0.5999999999989468 0 0  0.6499999999990784 0 0  0.69999999999921 0 0  0.7499999999993417 0 0  0.7999999999994734 0 0  0.8499999999996051 0 0  0.8999999999997368 0 0  0.9499999999998684 0 0  1 0.04999999999989965 0  1 0.09999999999981467 0  1 0.1499999999997036 0  1 0.1999999999995579 0  1 0.2499999999994121 0  1 0.2999999999992664 0  1 0.3499999999991206 0  1 0.3999999999989749 0  1 0.4499999999988292 0  1 0.4999999999986943 0  1 0.5499999999988151 0  1 0.5999999999989468 0  1 0.6499999999990784 0  1 0.69999999999921 0  1 0.7499999999993417 0  1 0.7999999999994734 0  1 0.8499999999996051 0  1 0.8999999999997368 0  1 0.9499999999998684 0  0.9499999999997918 1 0  0.8999999999995836 1 0  0.8499999999996529 1 0  0.7999999999999998 1 0  0.7500000000003466 1 0  0.7000000000006934 1 0  0.6500000000010401 1 0  0.6000000000013869 1 0  0.5500000000017335 1 0  0.5000000000020587 1 0  0.4500000000018723 1 0  0.4000000000016644 1 0  0.3500000000014564 1 0  0.3000000000012483 1 0  0.2500000000010403 1 0  0.2000000000008322 1 0  0.1500000000006241 1 0  0.100000000000416 1 0  0.05000000000020799 1 0  -0.1 1.05000000000004 0  -0.1 1.000000000000079 0  -0.1 0.9500000000001624 0  -0.1 0.9000000000003032 0  -0.1 0.850000000000444 0  -0.1 0.8000000000005848 0  -0.1 0.7500000000007256 0  -0.1 0.7000000000008665 0  -0.1 0.6500000000010508 0  -0.1 0.6000000000012352 0  -0.1 0.5500000000014196 0  -0.1 0.500000000001539 0  -0.1 0.4500000000014195 0  -0.1 0.4000000000013 0  -0.1 0.3500000000011588 0  -0.1 0.3000000000010178 0  -0.1 0.2500000000008986 0  -0.1 0.2000000000007579 0  -0.1 0.1500000000006174 0  -0.1 0.1000000000005272 0  -0.1 0.05000000000040083 0  -0.1 2.671196597248127e-13 0  -0.1 -0.0499999999998666 0  -0.0500000000000906 -0.1 0  -1.730560139634463e-13 -0.1 0  0.04999999999975802 -0.1 0  0.09999999999961506 -0.1 0  0.1499999999994613 -0.1 0  0.199999999999302 -0.1 0  0.2499999999991446 -0.1 0  0.2999999999990088 -0.1 0  0.3499999999988296 -0.1 0  0.3999999999986936 -0.1 0  0.4499999999985143 -0.1 0  0.4999999999984002 -0.1 0  0.5499999999985247 -0.1 0  0.5999999999986493 -0.1 0  0.6499999999987955 -0.1 0  0.6999999999989417 -0.1 0  0.7499999999990659 -0.1 0  0.7999999999992116 -0.1 0  0.8499999999993573 -0.1 0  0.8999999999994526 -0.1 0  0.949999999999584 -0.1 0  0.9999999999997226 -0.1 0  1.049999999999861 -0.1 0  1.1 -0.0500000000000906 0  1.1 -1.730560139634463e-13 0  1.1 0.04999999999975802 0  1.1 0.09999999999961506 0  1.1 0.1499999999994613 0  1.1 0.199999999999302 0  1.1 0.2499999999991446 0  1.1 0.2999999999990088 0  1.1 0.3499999999988296 0  1.1 0.3999999999986936 0  1.1 0.4499999999985143 0  1.1 0.4999999999984002 0  1.1 0.5499999999985247 0  1.1 0.5999999999986493 0  1.1 0.6499999999987955 0  1.1 0.6999999999989417 0  1.1 0.7499999999990659 0  1.1 0.7999999999992116 0  1.1 0.8499999999993573 0  1.1 0.8999999999994526 0  1.1 0.949999999999584 0  1.1 0.9999999999997226 0  1.1 1.049999999999861 0  1.05000000000004 1.1 0  1.000000000000079 1.1 0  0.9500000000001624 1.1 0  0.9000000000003032 1.1 0  0.850000000000444 1.1 0  0.8000000000005848 1.1 0  0.7500000000007256 1.1 0  0.7000000000008665 1.1 0  0.6500000000010508 1.1 0  0.6000000000012352 1.1 0  0.5500000000014196 1.1 0  0.500000000001539 1.1 0  0.4500000000014195 1.1 0  0.4000000000013 1.1 0  0.3500000000011588 1.1 0  0.3000000000010178 1.1 0  0.2500000000008986 1.1 0  0.2000000000007579 1.1 0  0.1500000000006174 1.1 0  0.1000000000005272 1.1 0  0.05000000000040083 1.1 0  2.671196597248127e-13 1.1 0  -0.0499999999998666 1.1 0  0.6484976087844743 0.7165808501837316 0  0.6813705106878417 0.7023041668556903 0  0.7107449548848832 0.680480757998962 0  0.7331261832521595 0.6514106708196528 0  0.7456151510695078 0.6173565703292364 0  0.7525310232161043 0.5825344339256286 0  0.7543590939615018 0.5475622835938119 0  0.7538542292201434 0.5128600429357032 0  0.750753885675606 0.4783855036275367 0  0.7451154654734897 0.4443941850575474 0  0.7369150822946906 0.4108782768396255 0  0.726122693131084 0.3781313608595662 0  0.7126536442706871 0.3462985243109412 0  0.6958352532069255 0.3161873548801236 0  0.6752364381967219 0.2881237242774983 0  0.6489453295863028 0.2646399695431472 0  0.6182773258485792 0.247440524494615 0  0.5841921335550775 0.2411293210764673 0  0.5503921101891472 0.2428822298961655 0  0.51833368317006 0.2509985649876888 0  0.4876363851432888 0.2621485715014131 0  0.4581484474876666 0.2753235946464289 0  0.4293792340547402 0.2898475609161978 0  0.4013916758567141 0.3056260308093444 0  0.3741644640873023 0.322465618613565 0  0.3477608773432588 0.3401937334457928 0  0.3220243308260947 0.3586250656457064 0  0.2971029181394118 0.3777671496233132 0  0.2729778033510433 0.3973749502617663 0  0.2496333362800199 0.4176142087252695 0  0.2270361727036557 0.4383213388511198 0  0.2054440179154113 0.4600283614917445 0  0.1861238295938835 0.4840434566680381 0  0.1730200859808357 0.5128279284949113 0  0.1752309029688676 0.5463509591646946 0  0.1916323373911428 0.5745798690235345 0  0.2147406356579684 0.5965687988980378 0  0.2401089147345347 0.6157201448526148 0  0.2666961630884954 0.6332479942904857 0  0.2942557442268269 0.6496589966453458 0  0.3227539808042044 0.6648993259931993 0  0.3522863517980867 0.6788935081473425 0  0.382649021778303 0.6912524902796494 0  0.4140220869948782 0.7020102523977331 0  0.4462337747174639 0.711059376791338 0  0.4788926025115735 0.7183443470056344 0  0.5122195203433144 0.7236165899829461 0  0.5460671696675864 0.7265531835823064 0  0.5801092801878337 0.7268849675101076 0  0.3500295753386468 0.6419220591613758 0  0.331254137963128 0.3889069656031944 0  0.5472006522289374 0.2758122959645476 0  0.6805413404125507 0.3443478775280424 0  0.256727294909307 0.4512919448775411 0  0.6784905093507619 0.6697789710241587 0  0.4027778614664291 0.33868843560159 0  0.2671849629630558 0.5978721751721487 0  0.712996979710242 0.4287049041679749 0  0.458318465544221 0.3096214754048171 0  0.4140755508299442 0.6610988233713869 0  0.4679329224607558 0.6846304714905738 0  0.5333812807312844 0.6935036619809077 0  0.7238752009829388 0.5649372048689216 0  0.7220804411796248 0.4993494352411597 0  0.5978441201407929 0.6937626372137687 0  0.2168398993112052 0.4944499472159617 0  0.6237303611508455 0.2826863629222727 0  0.2205902445249387 0.5604342679872467 0  0.7104726456283211 0.625251907244136 0  0.1994745862119356 0.5286378037155816 0  0.2315674828929276 0.5273583684734112 0  0.2467050238721717 0.5001623163323397 0  0.2609794513015612 0.5294001923327172 0  0.2768628705256594 0.5028686220422103 0  0.2914519105050646 0.5333449154887168 0  0.3077810949462838 0.5038017848319246 0  0.3229507415682474 0.536988479323927 0  0.3402508821964969 0.5055482438678613 0  0.3559692641898591 0.5410652868913278 0  0.3747898015800548 0.5080324879920718 0  0.3926875426578145 0.5450435149144504 0  0.4151752851188596 0.5082792511861518 0  0.3903843291037896 0.4635751379897538 0  0.4385189763985973 0.4660546651750746 0  0.3232236631065049 0.4724478067726869 0  0.3360177219226754 0.5713103094860692 0  0.4356539472778064 0.5595012202697358 0  0.4169969798045399 0.421060063310839 0  0.4674119828859031 0.4288416240053999 0  0.4058028673496454 0.5939227959424244 0  0.4567864517295169 0.600250767764846 0  0.378221755983371 0.4225144603418559 0  0.3873700569582726 0.3891911904519375 0  0.4200660046292652 0.3845873955229805 0  0.4628940196425679 0.3705657095853291 0  0.4289619057887193 0.6285062465427841 0  0.4946809505871953 0.4848699066486065 0  0.5198261397330034 0.4201657086863396 0  0.513790500373664 0.3630878669641249 0  0.485362082788882 0.5560537674801735 0  0.5051124974806094 0.5940400348535043 0  0.5641073558656131 0.5965664068981519 0  0.4780315189590377 0.6341142955493607 0  0.2724547279665019 0.563620146732312 0  0.287131465932897 0.4688695780080432 0  0.3057894938475141 0.4446478765918498 0  0.3328465020303446 0.4432745079664668 0  0.304917130187768 0.5653682396456388 0  0.3151989287285993 0.5962751349497076 0  0.3471946163456246 0.6060628194768524 0  0.3697284337437572 0.5785794126768322 0  0.380010038144352 0.6135893360307816 0  0.3803450285582634 0.6511007985349223 0  0.3552841410217146 0.3719326819052395 0  0.3777700239391014 0.3558884965390643 0  0.4302685073271653 0.3236904517867267 0  0.4385025601788203 0.6793713268945084 0  0.4871328939438238 0.2958555902118324 0  0.4878911809456993 0.3305520456728742 0  0.5163798700627544 0.314942581727535 0  0.547311877925322 0.3406270395513198 0  0.555961979421688 0.381928095738426 0  0.5789938757193405 0.4264140234083 0  0.5860117845844512 0.3547808750977636 0  0.6226130683731648 0.4069250703532951 0  0.5770098610625626 0.3222333360079837 0  0.6132264599867527 0.3357498552936986 0  0.5010517470426128 0.6911295729679673 0  0.5213403976140576 0.6628287436749914 0  0.5525110301926525 0.6631229604375495 0  0.7235279582748515 0.5325301361242806 0  0.6928507245525212 0
[...]
<PointData  Scalars="u"> 
<DataArray  type="Float64"  Name="u"  format="ascii">0.0000000000000000e+00  0.0000000000000000e+00  0.0000000000000000e+00  0.0000000000000000e+00  0.0000000000000000e+00  0.0000000000000000e+00  0.0000000000000000e+00  0.0000000000000000e+00  7.3064866827250452e-01  4.1748898552355312e-01  0.0000000000000000e+00  0.0000000000000000e+00  0.0000000000000000e+00  0.0000000000000000e+00  0.0000000000000000e+00  0.0000000000000000e+00  0.0000000000000000e+00  0.0000000000000000e+00  0.0000000000000000e+00  0.0000000000000000e+00  0.0000000000000000e+00  0.0000000000000000e+00  0.0000000000000000e+00  0.0000000000000000e+00  0.0000000000000000e+00  0.0000000000000000e+00  0.0000000000000000e+00  0.0000000000000000e+00  0.0000000000000000e+00  0.0000000000000000e+00  0.0000000000000000e+00  0.0000000000000000e+00  0.0000000000000000e+00  0.0000000000000000e+00  0.0000000000000000e+00  0.0000000000000000e+00  0.0000000000000000e+00  0.0000000000000000e+00  0.0000000000000000e+00  0.0000000000000000e+00  0.0000000000000000e+00  0.0000000000000000e+00  0.0000000000000000e+00  0.0000000000000000e+00  0.0000000000000000e+00  0.0000000000000000e+00  0.0000000000000000e+00  0.0000000000000000e+00  0.0000000000000000e+00  0.0000000000000000e+00  0.0000000000000000e+00  0.0000000000000000e+00  0.0000000000000000e+00  0.0000000000000000e+00  0.0000000000000000e+00  0.0000000000000000e+00  0.0000000000000000e+00  0.0000000000000000e+00  0.0000000000000000e+00  0.0000000000000000e+00  0.0000000000000000e+00  0.0000000000000000e+00  0.0000000000000000e+00  0.0000000000000000e+00  0.0000000000000000e+00  0.0000000000000000e+00  0.0000000000000000e+00  0.0000000000000000e+00  0.0000000000000000e+00  0.0000000000000000e+00  0.0000000000000000e+00  0.0000000000000000e+00  0.0000000000000000e+00  0.0000000000000000e+00  0.0000000000000000e+00  0.0000000000000000e+00  0.0000000000000000e+00  0.0000000000000000e+00  0.0000000000000000e+00  0.0000000000000000e+00  0.0000000000000000e+00  0.0000000000000000e+00  0.0000000000000000e+00  0.0000000000000000e+00  0.0000000000000000e+00  0.0000000000000000e+00  0.0000000000000000e+00  0.0000000000000000e+00  0.0000000000000000e+00  0.0000000000000000e+00  0.0000000000000000e+00  0.0000000000000000e+00  0.0000000000000000e+00  0.0000000000000000e+00  0.0000000000000000e+00  0.0000000000000000e+00  0.0000000000000000e+00  0.0000000000000000e+00  0.0000000000000000e+00  0.0000000000000000e+00  0.0000000000000000e+00  0.0000000000000000e+00  0.0000000000000000e+00  0.0000000000000000e+00  0.0000000000000000e+00  0.0000000000000000e+00  0.0000000000000000e+00  0.0000000000000000e+00  0.0000000000000000e+00  0.0000000000000000e+00  0.0000000000000000e+00  0.0000000000000000e+00  0.0000000000000000e+00  0.0000000000000000e+00  0.0000000000000000e+00  0.0000000000000000e+00  0.0000000000000000e+00  0.0000000000000000e+00  0.0000000000000000e+00  0.0000000000000000e+00  0.0000000000000000e+00  0.0000000000000000e+00  0.0000000000000000e+00  0.0000000000000000e+00  0.0000000000000000e+00  0.0000000000000000e+00  0.0000000000000000e+00  0.0000000000000000e+00  0.0000000000000000e+00  0.0000000000000000e+00  0.0000000000000000e+00  0.0000000000000000e+00  0.0000000000000000e+00  0.0000000000000000e+00  0.0000000000000000e+00  0.0000000000000000e+00  0.0000000000000000e+00  0.0000000000000000e+00  0.0000000000000000e+00  0.0000000000000000e+00  0.0000000000000000e+00  0.0000000000000000e+00  0.0000000000000000e+00  0.0000000000000000e+00  0.0000000000000000e+00  0.0000000000000000e+00  0.0000000000000000e+00  0.0000000000000000e+00  0.0000000000000000e+00  0.0000000000000000e+00  0.0000000000000000e+00  0.0000000000000000e+00  0.0000000000000000e+00  0.0000000000000000e+00  0.0000000000000000e+00  0.0000000000000000e+00  0.0000000000000000e+00  0.0000000000000000e+00  0.0000000000000000e+00  0.0000000000000000e+00  0.0000000000000000e+00  0.0000000000000000e+00  0.0000000000000000e+00  0.0000000000000000e+00  0.0000000000000000e+00  0.0000000000000000e+00  0.0000000000000000e+00  0.0000000000000000e+00  0.0000000000000000e+00  0.0000000000000000e+00  0.0000000000000000e+00  0.0000000000000000e+00  0.0000000000000000e+00  0.0000000000000000e+00  0.0000000000000000e+00  0.0000000000000000e+00  0.0000000000000000e+00  0.0000000000000000e+00  4.0053199355232455e-01  3.8800804479506179e-01  3.7994339024867174e-01  3.8114802882795573e-01  3.9382686696668034e-01  4.0652327571509606e-01  4.1981345926517344e-01  4.2822699910027917e-01  4.3283270714602923e-01  4.3366876249548730e-01  4.3122364427071319e-01  4.2510403437391253e-01  4.1561672415339979e-01  4.0407172234065775e-01  3.9072911019399442e-01  3.8095338561999131e-01  3.7676837769383942e-01  3.8424083570561113e-01  4.0105224624613767e-01  4.2130234880174439e-01  4.3939851162149529e-01  4.5455974869781363e-01  4.6577954970075863e-01  4.7257878517577012e-01  4.7497360591426097e-01  4.7286566575057892e-01  4.6615227872563741e-01  4.5489980795907098e-01  4.3892242696562733e-01  4.1759760845491356e-01  3.9166211222220659e-01  3.6206546293816594e-01  3.3149347230257664e-01  3.0556560909803554e-01  3.0525435305722898e-01  3.2857430840139185e-01  3.5782347012194243e-01  3.8638489523054170e-01  4.1053146581325023e-01  4.3054959390829500e-01  4.4610432312759762e-01  4.5748398211842051e-01  4.6491696831830243e-01  4.6845554405749479e-01  4.6804626995364618e-01  4.6435504517362131e-01  4.5737000756075175e-01  4.4646829028879081e-01  4.3319776212736216e-01  5.3187856248835075e-01  5.3658657370064400e-01  4.8536350563759312e-01  4.8046562453629654e-01  4.7238213863767209e-01  4.5748385023374222e-01  5.4817128774721313e-01  4.6660366085387217e-01  5.0484152242206892e-01  5.3818236099090022e-01  5.6313260711376045e-01  5.4539153503638882e-01  5.3274411251340970e-01  4.8893113777823805e-01  5.0995876710685317e-01  5.0329389773684741e-01  4.1136455585997433e-01  4.5381260722487832e-01  4.0781535099768523e-01  4.6534769707342583e-01  3.7591275140312502e-01  4.4388008227502923e-01  4.7506170734057679e-01  5.0210139210579396e-01  5.3374901862602797e-01  5.5648173677488944e-01  5.8757205261064882e-01  6.0543095797375146e-01  6.3595333317279246e-01  6.4848732539256315e-01  6.7878658051715923e-01  6.8668106610247104e-01  7.1706618222238860e-01  6.8639955031012978e-01  7.2598058753914874e-01  6.0354173966552405e-01  6.0292645851743820e-01  7.1087425831149087e-01  6.8025532093872432e-01  7.1729033532593445e-01  6.5833449702443625e-01  6.8255880717321660e-01  6.4167528378862637e-01  6.1330111687101097e-01  6.3859941472456905e-01  6.4761441004091314e-01  6.2845729066847489e-01  7.5312078395527693e-01  7.1807044706139744e-01  6.5135460999466654e-01  7.3259417382171566e-01  6.9732694043912635e-01  6.7916155879366258e-01  6.4122182632261571e-01  5.0766051422599645e-01  5.4218221925813903e-01  5.5755796713210826e-01  5.9984640528561695e-01  5.6137235829642718e-01  5.4807893813633457e-01  5.8103573111672790e-01  6.3843182172435098e-01  6.0910098972557281e-01  5.5062603036100377e-01  5.4690721750875593e-01  5.5019433037391174e-01  5.4592119076983847e-01  5.4177442119041497e-01  5.2351220240971497e-01  5.9249733673877403e-01  5.6871077744298637e-01  6.1074034158898804e-01  6.6650761333816666e-01  6.9773370544434221e-01  6.1226373592031713e-01  6.3816414381823672e-01  5.6576741218432236e-01  5.5957705630038546e-01  5.3892279495699980e-01  5.9565146202895491e-01  5.8762899316217865e-01  5.0308021803165281e-01  5.6845851693605742e-01  5.7502095148697796e-01  6.2356623808497624e-01  6.1126501426521973e-01  6.2658533897250290e-01  6.6529829231840976e-01  6.6694746619914858e-01  6.0955960865107361e-01  5.8163091033990955e-01  5.4491782657811794e-01  7.1204594647198971e-01  5.9562961023663552e-01  6.4731547820487467e-01  5.3570808290880734e-01  4.9832005813438551e-01  5.7503825411698350e-01  5.1371447005096149e-01  5.2184936781656122e-01  4.3307480601675535e-01  5.0323783938176314e-01  4.8015601143261000e-01  5.4915709334791452e-01  5.1252205139214591e-01  5.7674371201712160e-01  5.1721828533924075e-01  5.8582982007016660e-01  6.3134179050634776e-01  5.3019646742477478e-01  6.3364558596720832e-01  6.0941301808171033e-01  5.8126799648383054e-01  6.6392566017137333e-01  5.1057410535390602e-01  4.9636909995794348e-01  4.8711932940599029e-01  6.8415869092398574e-01  5.5117331314953455e-01  4.8645029798859957e-01  6.4298630290514958e-01  6.1286120108183106e-01  5.1554283681668589e-01  4.5868586596532179e-01  5.9935716680788942e-01  4.4211067694202127e-01  5.3452516659947391e-01  4.7678294857449410e-01  5.7192878005104442e-01  6.0980516302350685e-01  5.9727634717018907e-01  4.6388417378974328e-01  6.2995497533969880e-01  5.5222205921713030e-01  4.6256742341508622e-01  6.4177300087044842e-01  7.3883991589223819e-01  6.5510998052933411e-01  6.0593219480695359e-01  7.3916338147068972e-01  4.5318166744769828e-01  5.9502278714823698e-01  5.1889277571608072e-01  4.8391007373347605e-01  5.1701236047692545e-01  6.8981229195855420e-01  6.8838514299423437e-01  4.4638980541588807e-01  4.9772914697223458e-01  4.3777167576403891e-01  6.8311928009681633e-01  7.1573995046631289e-01  6.3816349035210584e-01  5.3156989617850714e-01  6.7362057349854865e-01  5.2967636291099807e-01  5.9364836978118796e-01  5.9485340524134622e-01  6.4795371207248775e-01  6.7383709363548772e-01  6.5128507366009625e-01  3.8835694930419190e-01  4.1779087123288960e-01  4.1399610917533436e-01  3.5297205172659624e-01  4.0390095165139350e-01  3.5589364184967548e-01  4.2720859022897900e-01  3.5133754694181202e-01  3.7958350880140918e-01  3.4555320593072419e-01  3.8271051670496437e-01  3.2814325822705087e-01  6.3850598205072171e-03  4.9767628153662355e-03  3.2906462685312818e-03  3.9917958951043575e-01  5.0313297102558344e-03  3.3010348893056951e-01  1.8913496092389948e-02  8.0530191746270192e-03  2.2463000193926528e-02  5.5633960851585755e-03  3.7800371981291048e-01  3.4856899015528803e-01  1.7487630640248671e-02  8.4869550593830168e-03  3.5894965320845194e-03  2.3472367736981539e-02  2.5540956306247028e-02  2.7362015917579408e-01  2.9792324724266428e-01  3.7050995380500225e-02  3.6986274550779974e-01  3.8094767870254703e-02  4.4062757379939900e-02  8.4518249753039888e-03  3.6881427772705457e-02  7.8364949378313276e-03  4.6534989045846629e-04  2.1457914776667011e-03  5.6578259379926410e-03  2.3870328166295087e-03  5.8853476619541122e-03  5.3399502699988700e-02  2.3461450219942198e-03  2.3738930143940343e-03  2.5010049183593180e-01  2.2614538498766329e-01  2.0564114060234334e-01  1.8335781286848229e-01  2.0139894775806710e-01  1.5828139258869423e-01  1.7459475463996510e-01  1.3792387853587915e-01  6.4344889782711381e-03  2.1621406658225750e-01  1.8633491701991794e-01  1.4284321288350255e-01  1.5257684452758133e-01  2.0538427891780645e-01  1.6195216805885720e-01  2.0560059151107826e-01  1.6433940313044762e-01  2.0363485276966040e-01  1.6107506022790688e-01  1.9667217633484577e-01  1.5365212547178508e-01  1.8490535697520338e-01  1.4130725389504670e-01  1.6860932215475241e-01  1.1468659753388952e-01  1.0270658498280689e-01  1.2685533836948382e-01  8.0040136190820982e-02  2.2455289823901872e-01  1.9723069539576599e-01  1.5009313903589966e-01  1.7265514224819387e-01  2.2185062628828850e-01  1.9420331832734114e-01  1.4743013748143996e-01  1.6503389952796388e-01  1.2017029357019483e-01  1.3469499826628448e-01  1.8053696953705017e-01  1.4732429446724074e-01  1.9184160209730447e-01  1.5654091905705061e-01  2.0745005230941768e-01  1.6320818366091192e-01  2.0325549981716318e-01  1.6347538347666127e-01  1.9939501450726799e-01  1.5965072841237310e-01  1.9216252034833128e-01  1.5161149900417550e-01  1.8084523890206930e-01  1.3925197648142335e-01  1.6340907294833593e-01  1.2333533827667474e-01  1.4298469551112125e-01  1.0300347851431893e-01  8.8139837843682386e-02  1.2732469990370868e-01  7.1055465389505121e-02  1.2349394099222551e-01  5.8581949525906243e-02  7.2239439771911607e-02  2.1357552638361135e-01  2.2799549851899878e-01  4.4599463145130920e-02  5.3343473965120937e-02  1.0428066119462651e-01  6.7280689439199556e-02  1.2185969982354430e-01  4.4925911661805679e-02  5.4661998171437895e-02  8.0166411832627543e-02  1.0573377981318066e-01  2.4354740806291086e-01  4.9349124252416512e-02  5.8314673139549779e-02  2.4183075465379378e-01  3.0900163281824482e-02  2.5498162805046173e-02  3.4410580457716944e-02  3.9192597066108802e-02  2.2355180124931756e-01  1.8244492785459479e-01  1.9797182982101086e-01  2.4673171104761196e-01  2.7525304451890031e-01  2.9993905777664776e-01  1.5835788060848000e-01  1.7181194870428146e-01  -9.7069913529252772e-04  8.4418091472244619e-02  6.2444265798667867e-02  9.5411709215914173e-02  6.7623022639628813e-02  1.0132286852670223e-01  7.0010183185866673e-02  1.0421133368794284e-01  1.4075930096366435e-01  1.4299801027731932e-01  1.8352847238129297e-01  1.8555394790104524e-01  1.4305123656800287e-01  1.8324999556797383e-01  1.3927831950931052e-01  1.7634932872944448e-01  1.3121739445114983e-01  1.6499838499339312e-01  1.2056325155545661e-01  1.5014539248286005e-01  1.0660308961189903e-01  1.3231489917033135e-01  1.7856111344641717e-01  1.5621980756587686e-01  1.1311889115529156e-01  1.3181876609209922e-01  9.2369737360752921e-02  1.0626215007554593e-01  1.4708699829177749e-01  1.1687065458154387e-01  1.5710962947535534e-01  8.1466796554076487e-02  1.2245466781518538e-01  1.6101695705348071e-01  1.2300169651951069e-01  1.6726611729405577e-01  2.0564298844166604e-01  1.1855311297408355e-01  1.5235061069927971e-01  7.5425962095767851e-02  2.1666830754481145e-01  9.0597286070611335e-02  9.9505970902132632e-02  5.9205274921437838e-02  2.1569869921783014e-01  1.7721071078762113e-01  2.2680730730149240e-01  2.3165004421030289e-01  2.1383464304360389e-01  1.0715320836208016e-01  1.3661017496722369e-01  1.8600308117790218e-01  1.6743771615997100e-01  2.2995364054668205e-01  2.5712807789231296e-01  2.1809339915813220e-01  2.0493417433767230e-01  1.4626065263968041e-01  1.7336397171719212e-01  2.2784509496820451e-01  1.9714223636114009e-01  2.5180905398173481e-01  2.2652438108382622e-01  1.6643176235375978e-01  1.8478552260997080e-01  2.4618024379690312e-01  1.9928955692666195e-01  2.5341610569587841e-01  2.1012403018722464e-01  1.6076438871128385e-01  1.6694134319291398e-01  2.1288829842248017e-01  1.6925639195976572e-01  2.1189052230192476e-01  1.6626522488974863e-01  2.1187560616839604e-01  1.5965148661073672e-01  1.9287514998495095e-01  1.2462164603859957e-01  1.4573948131337128e-01  1.7464682983378546e-01  1.2432550324394898e-01  1.2728812815988980e-01  1.5125841808764035e-01  1.0556527797323506e-01  1.0463843392184238e-01  2.1991029821391520e-01  2.6599763572405760e-01  1.3443940589844977e-01  1.2359817706157965e-01  1.7450964511120043e-01  1.9184130134404734e-01  1.4237818110395614e-01  4.4296300613043800e-02  8.0285831148809564e-02  7.9629767437158272e-02  6.9518413055726064e-02  2.2036714533411725e-01  3.5922549216426153e-02  5.9875816591175107e-02  3.9219631079417498e-02  3.3394823156124814e-01  3.2639517976520666e-01  2.9356560831279871e-01  2.4992982003035211e-01  6.2987813663878373e-02  1.1093464504246843e-01  8.8003869558800366e-02  5.5946445229359411e-02  6.7142665992112480e-02  2.9569715869454344e-01  3.0464357128882052e-01  3.3991113221339653e-01  3.0229755263698282e-01  3.0906868382101021e-01  1.2802360255420531e-01  6.2897947096392445e-02  4.0670694481191962e-02  6.4003525055594784e-02  3.2782715485401437e-01  3.0228697407351818e-01  1.1246280946209170e-01  8.8702454671562278e-02  6.8879852102407380e-02  3.1248459157658691e-02  2.4609748815758174e-02  2.3625960317886771e-01  2.6584146474226594e-01  2.8202941432423195e-01  1.2346536999971583e-01  4.1386597237178427e-02  2.8332594250434057e-01  1.1624038665390328e-01  8.5085684929092506e-02  9.1262206343018973e-02  2.1076504263712503e-02  -6.7372956724735507e-04  -4.6276974720795596e-04  7.8586480289317778e-02  6.7669250168302400e-02  4.4507594040917725e-02  5.7358988187776676e-02  2.0136359922406602e-01  2.2848947458284313e-01  1.8501918697980284e-02  9.9624176361218994e-02  1.6889577134218831e-01  6.5013319298489067e-02  3.0462581640885877e-01  2.8043572794216470e-01  3.2662587695894685e-01  3.0506673406920404e-01  3.5103410943381402e-01  3.2129939582302353e-01  3.7782770702130819e-01  3.9100945938377235e-02  6.1834439259872649e-02  5.8163582877464252e-02  6.2809154503437339e-02  3.4036450456698661e-02  4.3687936052902415e-02  2.2693310186784374e-02  2.9050704603917506e-02  1.9855998277805367e-01  4.0484815203950038e-02  6.3005054726736134e-02  3.4948789881942233e-01  3.1274232311332245e-01  5.3734568205929582e-02  3.2700671833458156e-01  2.9156493239125958e-01  2.8884697821179811e-01  2.9151980220510826e-01  1.4325331559089982e-01  4.0785002807534623e-02  2.8035352003366137e-01  3.0388994635151895e-01  2.4443943529923343e-01  2.7486014166905404e-01  1.4032370145463496e-02  3.2857798901071922e-01  9.5599941537490601e-02  2.6247771230003120e-01  2.6137691148117814e-01  9.3173455830407814e-02  6.2028033629696493e-02  1.8374416077583025e-01  3.3885941300891625e-01  4.7056965580494388e-02  5.5670456647082978e-02  3.3258825660930119e-01  3.5085555971118088e-01  3.2734034805257273e-01  2.5123594462522734e-02  2.7375551198476267e-01  9.1505741786383168e-02  3.5882072508175133e-01  3.3036089826912934e-01  3.4044263179489359e-01  2.9486178939719121e-01  3.0352055184996651e-01  3.4409426075887511e-01  3.0583880063571672e-01  3.1640591326823958e-01  3.0927125522817428e-01  2.7684257565078868e-01  2.6979011163729050e-01  8.7994580757074489e-02  5.2965833641884501e-02  2.5402034347909713e-01  3.0434319225382411e-01  2.7704340417579416e-02  1.6943532455526190e-02  3.8194740056732390e-01  3.5533284652737246e-01  3.4016903664431213e-02  3.7173437845168134e-02  5.8995054529170178e-02  3.3413966740270598e-02  5.1693939130242637e-02  2.6727414697997914e-02  2.6415870827574262e-01  2.0217675586582998e-01  3.4403345777746347e-01  3.8585880368828762e-01  1.2289336464550271e-02  1.5564281770774995e-02  3.3092278240920474e-02  2.8589722603781231e-01  1.0400807968246054e-02  2.3771316062647149e-03  7.6812409159436575e-03  4.5986712852440957e-02  5.7404919402615016e-02  3.8211174762164853e-02  4.2390652024054277e-03  2.2251941419370683e-01  2.7229173798782436e-01  3.2409006011483382e-01  2.8860852440386836e-01  3.4623527249734487e-01  2.7531782609390049e-01  2.0267753927417850e-01  2.8259296884882185e-01  3.0513660840564510e-01  3.5056745281936219e-01  3.2530828795373390e-01  4.4857160140763089e-02  1.0093728150049705e-03  5.9962013659621708e-03  2.3499139413468390e-01  3.5340749157871004e-01  3.0874697587268246e-01  3.5907300739040621e-01  3.2428852166119931e-01  3.6577030029665403e-01  3.1714791218018323e-01  3.6615264552699667e-01  3.1518793819664054e-01  2.6818901082511692e-01  3.1288560368873969e-01  4.7119746882667221e-02  9.0215247939094495e-02  2.9035400589410128e-02  2.0776474249277699e-01  3.3551543152564900e-01  2.6294854360571523e-01  9.3951151199526128e-03  2.2948813580771946e-01  2.7620327763594893e-01  3.6769346029958266e-02  5.9855785956793126e-02  2.7846410567343504e-02  5.7006549268783756e-02  2.2087361051916266e-01  2.4926751523182439e-01  2.9358075418539809e-01  2.9899880501342918e-01  2.5471300243490924e-01  3.3266781013443458e-01  2.9701924932047896e-01  3.3701658494366360e-01  3.3458181277973803e-01  3.1130545589660347e-02  7.0108585798598508e-02  1.2672573929254166e-01  3.0516406163831281e-02  2.1444175071526481e-01  1.8370555824327539e-01  3.7087466004795600e-01  4.0405615740331485e-01  3.4734581273879787e-02  4.7544304421590231e-02  3.5607651799165008e-01  3.7719529650191091e-01  3.3824641550949858e-01  3.2948321965050709e-01  2.9408327042792104e-01  3.7319256149488368e-02  3.0842738819579246e-01  2.8947690010924748e-01  3.3803412190396986e-01  2.3236740920325155e-01  9.5005803010735607e-02  6.1029259906061634e-03  1.9890806152647525e-01  3.9378437873970114e-02