<?xml version="1.0"?>
<VTKFile type="UnstructuredGrid"  version="0.1"  >
<UnstructuredGrid>
<Piece  NumberOfPoints="1259" NumberOfCells="2420">
<Points>
<DataArray  type="Float64"  NumberOfComponents="3"  format="ascii">0 0 0  0 1 0  1 1 0  1 0 0  1.1 -0.1 0  -0.1 -0.1 0  1.1 1.1 0  -0.1 1.1 0  0.4968376882020379 0.5034311964161017 0  0.6116229093980403 0.7382322685420046 0  0 0.9499999999997918 0  0 0.8999999999995836 0  0 0.8499999999996529 0  0 0.7999999999999998 0  0 0.7500000000003466 0  0 0.7000000000006934 0  0 0.6500000000010401 0  0 0.6000000000013869 0  0 0.5500000000017335 0  0 0.5000000000020587 0  0 0.4500000000018723 0  0 0.4000000000016644 0  0 0.3500000000014564 0  0 0.3000000000012483 0  0 0.2500000000010403 0  0 0.2000000000008322 0  0 0.1500000000006241 0  0 0.100000000000416 0  0 0.05000000000020799 0  0.04999999999989965 0 0  0.09999999999981467 0 0  0.1499999999997036 0 0  0.1999999999995579 0 0  0.2499999999994121 0 0  0.2999999999992664 0 0  0.3499999999991206 0 0  0.3999999999989749 0 0  0.4499999999988292 0 0  0.4999999999986943 0 0  0.5499999999988151 0 0  0.5999999999989468 0 0  0.6499999999990784 0 0  0.69999999999921 0 0  0.7499999999993417 0 0  0.7999999999994734 0 0  0.8499999999996051 0 0  0.8999999999997368 0 0  0.9499999999998684 0 0  1 0.04999999999989965 0  1 0.09999999999981467 0  1 0.1499999999997036 0  1 0.1999999999995579 0  1 0.2499999999994121 0  1 0.2999999999992664 0  1 0.3499999999991206 0  1 0.3999999999989749 0  1 0.4499999999988292 0  1 0.4999999999986943 0  1 0.5499999999988151 0  1 0.5999999999989468 0  1 0.6499999999990784 0  1 0.69999999999921 0  1 0.7499999999993417 0  1 0.7999999999994734 0  1 0.8499999999996051 0  1 0.8999999999997368 0  1 0.9499999999998684 0  0.9499999999997918 1 0  0.8999999999995836 1 0  0.8499999999996529 1 0  0.7999999999999998 1 0  0.7500000000003466 1 0  0.7000000000006934 1 0  0.6500000000010401 1 0  0.6000000000013869 1 0  0.5500000000017335 1 0  0.5000000000020587 1 0  0.4500000000018723 1 0  0.4000000000016644 1 0  0.3500000000014564 1 0  0.3000000000012483 1 0  0.2500000000010403 1 0  0.2000000000008322 1 0  0.1500000000006241 1 0  0.100000000000416 1 0  0.05000000000020799 1 0  -0.1 1.05000000000004 0  -0.1 1.000000000000079 0  -0.1 0.9500000000001624 0  -0.1 0.9000000000003032 0  -0.1 0.850000000000444 0  -0.1 0.8000000000005848 0  -0.1 0.7500000000007256 0  -0.1 0.7000000000008665 0  -0.1 0.6500000000010508 0  -0.1 0.6000000000012352 0  -0.1 0.5500000000014196 0  -0.1 0.500000000001539 0  -0.1 0.4500000000014195 0  -0.1 0.4000000000013 0  -0.1 0.3500000000011588 0  -0.1 0.3000000000010178 0  -0.1 0.2500000000008986 0  -0.1 0.2000000000007579 0  -0.1 0.1500000000006174 0  -0.1 0.1000000000005272 0  -0.1 0.05000000000040083 0  -0.1 2.671196597248127e-13 0  -0.1 -0.0499999999998666 0  -0.0500000000000906 -0.1 0  -1.730560139634463e-13 -0.1 0  0.04999999999975802 -0.1 0  0.09999999999961506 -0.1 0  0.1499999999994613 -0.1 0  0.199999999999302 -0.1 0  0.2499999999991446 -0.1 0  0.2999999999990088 -0.1 0  0.3499999999988296 -0.1 0  0.3999999999986936 -0.1 0  0.4499999999985143 -0.1 0  0.4999999999984002 -0.1 0  0.5499999999985247 -0.1 0  0.5999999999986493 -0.1 0  0.6499999999987955 -0.1 0  0.6999999999989417 -0.1 0  0.7499999999990659 -0.1 0  0.7999999999992116 -0.1 0  0.8499999999993573 -0.1 0  0.8999999999994526 -0.1 0  0.949999999999584 -0.1 0  0.9999999999997226 -0.1 0  1.049999999999861 -0.1 0  1.1 -0.0500000000000906 0  1.1 -1.730560139634463e-13 0  1.1 0.04999999999975802 0  1.1 0.09999999999961506 0  1.1 0.1499999999994613 0  1.1 0.199999999999302 0  1.1 0.2499999999991446 0  1.1 0.2999999999990088 0  1.1 0.3499999999988296 0  1.1 0.3999999999986936 0  1.1 0.4499999999985143 0  1.1 0.4999999999984002 0  1.1 0.5499999999985247 0  1.1 0.5999999999986493 0  1.1 0.6499999999987955 0  1.1 0.6999999999989417 0  1.1 0.7499999999990659 0  1.1 0.7999999999992116 0  1.1 0.8499999999993573 0  1.1 0.8999999999994526 0  1.1 0.949999999999584 0  1.1 0.9999999999997226 0  1.1 1.049999999999861 0  1.05000000000004 1.1 0  1.000000000000079 1.1 0  0.9500000000001624 1.1 0  0.9000000000003032 1.1 0  0.850000000000444 1.1 0  0.8000000000005848 1.1 0  0.7500000000007256 1.1 0  0.7000000000008665 1.1 0  0.6500000000010508 1.1 0  0.6000000000012352 1.1 0  0.5500000000014196 1.1 0  0.500000000001539 1.1 0  0.4500000000014195 1.1 0  0.4000000000013 1.1 0  0.3500000000011588 1.1 0  0.3000000000010178 1.1 0  0.2500000000008986 1.1 0  0.2000000000007579 1.1 0  0.1500000000006174 1.1 0  0.1000000000005272 1.1 0  0.05000000000040083 1.1 0  2.671196597248127e-13 1.1 0  -0.0499999999998666 1.1 0  0.6343364784226431 0.7278468405873864 0  0.6554186157489439 0.7149041919736996 0  0.67442908204425 0.6991927400552336 0  0.6908671752476774 0.681179241547634 0  0.704466661877699 0.6611370270359554 0  0.7151683713345947 0.6395313776687607 0  0.7234652398490037 0.6169926728735382 0  0.7287723973204497 0.5934807449801651 0  0.7320973042025124 0.5694835268977293 0  0.7336930688878164 0.5451946940022181 0  0.7334723047367542 0.5207348545831851 0  0.7318463680695269 0.4962199683126609 0  0.7288025637012281 0.4717683252965199 0  0.7243742384971326 0.4475023965870181 0  0.7185323550313224 0.4235317982750136 0  0.7112868273822509 0.400021866651345 0  0.7026044519511248 0.3771020367731168 0  0.6923929833952714 0.3549430157733322 0  0.6806352548972684 0.3336935787118124 0  0.6670036495287497 0.3137292379529885 0  0.6515065058660205 0.2952744944688824 0  0.6340366581336163 0.2786618622771861 0  0.6142520716201616 0.2649131145612905 0  0.5927473594480599 0.2538279131650402 0  0.569570347710451 0.2461154721783451 0  0.5453010723144101 0.2421210048902424 0  0.5205286895610592 0.2414401735245423 0  0.4957384183996045 0.244125538103649 0  0.471173533176011 0.2496965578375515 0  0.447106986399697 0.2577194258286372 0  0.4237449686209587 0.2680193120279215 0  0.4012101450346828 0.2802841880352977 0  0.3796788537430679 0.2943132405263413 0  0.3593574205424126 0.3099063262240428 0  0.3401235288533506 0.3266535507834969 0  0.3226460526595958 0.3446801627618391 0  0.3064752235659102 0.3633244758359035 0  0.2917751518401002 0.3825035861509741 0  0.278509963925903 0.401963812891396 0  0.2666266950644146 0.4215747164902887 0  0.2561770831064115 0.441411629108184 0  0.2473871323053041 0.4615983679434983 0  0.2409010080264732 0.4822736984577546 0  0.2379157766709423 0.5033345545295911 0  0.2379512645471753 0.5235818636905584 0  0.2406665724997588 0.5432593608742983 0  0.2469414445483747 0.5632846546494058 0  0.2557797554254039 0.5828925327721313 0  0.2672570717810444 0.6014767446179347 0  0.2805624019681339 0.6192518515491006 0  0.295180752187746 0.6366270937003119 0  0.3111067237929904 0.6536556842465199 0  0.3284230111905937 0.6701310854660427 0  0.3472606255477426 0.6858640106431617 0  0.3675959009961568 0.7005366104619999 0  0.3892240247496156 0.7139060431099851 0  0.4120173695347927 0.7257155314587272 0  0.4358675972926841 0.7357594879090217 0  0.4605470044347694 0.743798114629514 0  0.4858024919262445 0.7492577710490419 0  0.5114638739502189 0.7521111408245247 0  0.5371271221609895 0.752505506865029 0  0.5625374765538799 0.7503366213562158 0  0.5874305052440086 0.7455794887898505 0  0.3030844205562133 0.6086216645125442 0  0.6297039899136407 0.3016219792098132 0  0.6677159352905871 0.6787108874139757 0  0.2904381472863112 0.4257275615023119 0  0.6784590362584118 0.3736609191707786 0  0.5119809721299996 0.2641712328701206 0  0.7067296075324435 0.5802520739566636 0  0.3505447805522159 0.658613026011781 0  0.4094694387035277 0.7001197690883513 0  0.4786297548342121 0.7210657294436003 0  0.5935553051799841 0.720344538827867 0  0.443310755134899 0.2831700583445398 0  0.7087975909185453 0.5075906672928918 0  0.7018179161354767 0.4392531304381209 0  0.2586403997891179 0.4809921217363646 0  0.3306328136331638 0.3699804200597648 0  0.3825729770195392 0.3207646744857996 0  0.267027182113329 0.5644727699418096 0  0.5765462685484158 0.2699149927107154 0  0.5243099487117681 0.7295579846111303 0  0.6998480085486956 0.6221747221563948 0  0.6584195519239867 0.3348992446501201 0  0.6352671406745553 0.6992743875436112 0  0.2550480446367814 0.5163710812922411 0  0.2787281096707024 0.4446938395730589 0  0.3010294617748163 0.4500924599161393 0  0.3136509422236458 0.4312467698864404 0  0.3231238782665313 0.4571434883448013 0  0.3359621588415397 0.437942068829849 0  0.3476644294734437 0.4657039575477294 0  0.3559952739107122 0.4383806101164396 0  0.3320834439534193 0.4872526026595968 0  0.3585571951734207 0.4974920238697715 0  0.3398082984254255 0.520732690846179 0  0.3681692311714235 0.5334235902174315 0  0.3126750121002624 0.5058825451694452 0  0.3196341610100577 0.5403018855192209 0  0.3883674145376058 0.5061758698651878 0  0.3980893420570169 0.5467660361975182 0  0.3737663764607592 0.5788297676887288 0  0.4044375617455696 0.5952055452138006 0  0.2971435099796761 0.5281173062147739 0  0.300621156102724 0.5566444195265929 0  0.3199946718466809 0.5698313334647712 0  0.4326224192054703 0.5622145843136879 0  0.4367325906631801 0.6116876129054249 0  0.4127582663575873 0.6258455722872945 0  0.4431704621083652 0.6485175356139317 0  0.4694307497690899 0.6280805450541643 0  0.4782499324682584 0.6571386698082593 0  0.5035775669579191 0.6437981915387685 0  0.4504214724623104 0.6792128512312421 0  0.2887071351636104 0.4684115325753374 0  0.3249541934130927 0.4128268969682632 0  0.5011777098160416 0.5956119630548508 0  0.5370960027997176 0.6134872948585047 0  0.5357433652467894 0.6598930742179407 0  0.5718983156240655 0.6394088585074049 0  0.5703303711005379 0.5897403965476977 0  0.603699504296634 0.6068088516595926 0  0.6027583344600236 0.5665353476261737 0  0.633789292064343 0.5829100804498972 0  0.6387516744592528 0.5443516754173411 0  0.6028989344298896 0.5264753758821691 0  0.6401287235517973 0.5054323278418286 0  0.6027223553499367 0.4861034713381467 0  0.6384351749646967 0.4620487142741944 0  0.602845710
[...]
<PointData  Scalars="u"> 
<DataArray  type="Float64"  Name="u"  format="ascii">0.0000000000000000e+00  0.0000000000000000e+00  0.0000000000000000e+00  0.0000000000000000e+00  0.0000000000000000e+00  0.0000000000000000e+00  0.0000000000000000e+00  0.0000000000000000e+00  7.2432695624469490e-01  3.8753402534983972e-01  0.0000000000000000e+00  0.0000000000000000e+00  0.0000000000000000e+00  0.0000000000000000e+00  0.0000000000000000e+00  0.0000000000000000e+00  0.0000000000000000e+00  0.0000000000000000e+00  0.0000000000000000e+00  0.0000000000000000e+00  0.0000000000000000e+00  0.0000000000000000e+00  0.0000000000000000e+00  0.0000000000000000e+00  0.0000000000000000e+00  0.0000000000000000e+00  0.0000000000000000e+00  0.0000000000000000e+00  0.0000000000000000e+00  0.0000000000000000e+00  0.0000000000000000e+00  0.0000000000000000e+00  0.0000000000000000e+00  0.0000000000000000e+00  0.0000000000000000e+00  0.0000000000000000e+00  0.0000000000000000e+00  0.0000000000000000e+00  0.0000000000000000e+00  0.0000000000000000e+00  0.0000000000000000e+00  0.0000000000000000e+00  0.0000000000000000e+00  0.0000000000000000e+00  0.0000000000000000e+00  0.0000000000000000e+00  0.0000000000000000e+00  0.0000000000000000e+00  0.0000000000000000e+00  0.0000000000000000e+00  0.0000000000000000e+00  0.0000000000000000e+00  0.0000000000000000e+00  0.0000000000000000e+00  0.0000000000000000e+00  0.0000000000000000e+00  0.0000000000000000e+00  0.0000000000000000e+00  0.0000000000000000e+00  0.0000000000000000e+00  0.0000000000000000e+00  0.0000000000000000e+00  0.0000000000000000e+00  0.0000000000000000e+00  0.0000000000000000e+00  0.0000000000000000e+00  0.0000000000000000e+00  0.0000000000000000e+00  0.0000000000000000e+00  0.0000000000000000e+00  0.0000000000000000e+00  0.0000000000000000e+00  0.0000000000000000e+00  0.0000000000000000e+00  0.0000000000000000e+00  0.0000000000000000e+00  0.0000000000000000e+00  0.0000000000000000e+00  0.0000000000000000e+00  0.0000000000000000e+00  0.0000000000000000e+00  0.0000000000000000e+00  0.0000000000000000e+00  0.0000000000000000e+00  0.0000000000000000e+00  0.0000000000000000e+00  0.0000000000000000e+00  0.0000000000000000e+00  0.0000000000000000e+00  0.0000000000000000e+00  0.0000000000000000e+00  0.0000000000000000e+00  0.0000000000000000e+00  0.0000000000000000e+00  0.0000000000000000e+00  0.0000000000000000e+00  0.0000000000000000e+00  0.0000000000000000e+00  0.0000000000000000e+00  0.0000000000000000e+00  0.0000000000000000e+00  0.0000000000000000e+00  0.0000000000000000e+00  0.0000000000000000e+00  0.0000000000000000e+00  0.0000000000000000e+00  0.0000000000000000e+00  0.0000000000000000e+00  0.0000000000000000e+00  0.0000000000000000e+00  0.0000000000000000e+00  0.0000000000000000e+00  0.0000000000000000e+00  0.0000000000000000e+00  0.0000000000000000e+00  0.0000000000000000e+00  0.0000000000000000e+00  0.0000000000000000e+00  0.0000000000000000e+00  0.0000000000000000e+00  0.0000000000000000e+00  0.0000000000000000e+00  0.0000000000000000e+00  0.0000000000000000e+00  0.0000000000000000e+00  0.0000000000000000e+00  0.0000000000000000e+00  0.0000000000000000e+00  0.0000000000000000e+00  0.0000000000000000e+00  0.0000000000000000e+00  0.0000000000000000e+00  0.0000000000000000e+00  0.0000000000000000e+00  0.0000000000000000e+00  0.0000000000000000e+00  0.0000000000000000e+00  0.0000000000000000e+00  0.0000000000000000e+00  0.0000000000000000e+00  0.0000000000000000e+00  0.0000000000000000e+00  0.0000000000000000e+00  0.0000000000000000e+00  0.0000000000000000e+00  0.0000000000000000e+00  0.0000000000000000e+00  0.0000000000000000e+00  0.0000000000000000e+00  0.0000000000000000e+00  0.0000000000000000e+00  0.0000000000000000e+00  0.0000000000000000e+00  0.0000000000000000e+00  0.0000000000000000e+00  0.0000000000000000e+00  0.0000000000000000e+00  0.0000000000000000e+00  0.0000000000000000e+00  0.0000000000000000e+00  0.0000000000000000e+00  0.0000000000000000e+00  0.0000000000000000e+00  0.0000000000000000e+00  0.0000000000000000e+00  0.0000000000000000e+00  0.0000000000000000e+00  0.0000000000000000e+00  0.0000000000000000e+00  0.0000000000000000e+00  0.0000000000000000e+00  0.0000000000000000e+00  0.0000000000000000e+00  0.0000000000000000e+00  0.0000000000000000e+00  0.0000000000000000e+00  0.0000000000000000e+00  0.0000000000000000e+00  3.8577529187428977e-01  3.8412963628811814e-01  3.8346938066426006e-01  3.8551712938178789e-01  3.8925039550589152e-01  3.9486642572187719e-01  4.0004962552502127e-01  4.0742275699898822e-01  4.1461309933329032e-01  4.2022393100186378e-01  4.2534965689978599e-01  4.2850200157625401e-01  4.2998074937623060e-01  4.3022195692546755e-01  4.2865775702379155e-01  4.2542087747589302e-01  4.2081832320281348e-01  4.1484038152664660e-01  4.0776985488749695e-01  4.0063778564741986e-01  3.9346463587620434e-01  3.8662056914142656e-01  3.8242956579794840e-01  3.7931635052986012e-01  3.7884572181793236e-01  3.8144908108183501e-01  3.8541439711723052e-01  3.9130829109344867e-01  3.9818519176540496e-01  4.0492376155566678e-01  4.1128267912829447e-01  4.1670979037106598e-01  4.2117939602475374e-01  4.2445773248839380e-01  4.2504400567985356e-01  4.2601307545708261e-01  4.2430451527752738e-01  4.2088959848864232e-01  4.1577804886023317e-01  4.0889371902404253e-01  4.0052818056117051e-01  3.9156544843787694e-01  3.8345841966183536e-01  3.7934215394623633e-01  3.7747720923579026e-01  3.7882591304401103e-01  3.8377435239870339e-01  3.8972754706432805e-01  3.9781798780557409e-01  4.0626977425093680e-01  4.1310869333467737e-01  4.1777090848913423e-01  4.2071694590167735e-01  4.2242980225629195e-01  4.2276293992038744e-01  4.2160004480206387e-01  4.1916695534688564e-01  4.1571234059503370e-01  4.1136592071747319e-01  4.0734965272259893e-01  4.0361535480242294e-01  3.9963082219447449e-01  3.9572422879333813e-01  3.9191188078149070e-01  4.7035586968661597e-01  4.4223147746548275e-01  4.3498976083835872e-01  4.7016370987721084e-01  4.7178094592196135e-01  4.4547352536420176e-01  4.7222981099383199e-01  4.8175783498403385e-01  4.7773757601767097e-01  4.7759894822401155e-01  4.4874756498480162e-01  4.6577891906079416e-01  4.8976883668204901e-01  4.8278671153745512e-01  4.3081908290081872e-01  4.8430714954253573e-01  4.8257133930084867e-01  4.3438948171230107e-01  4.3360327144016414e-01  4.6192739924672682e-01  4.5106855174524069e-01  4.5489446307038645e-01  4.4720191068139992e-01  4.2556613929697534e-01  4.5954009965216414e-01  5.0913113024043022e-01  5.2040822451384150e-01  5.5413410839556843e-01  5.6446318292732522e-01  5.9871182741474060e-01  5.9618126297336493e-01  5.8008708534686959e-01  6.2248103823570888e-01  5.9294819897790885e-01  6.3132968326820338e-01  5.4751859215773746e-01  5.5285429289054500e-01  6.6083751533291823e-01  6.6138120594522487e-01  6.1279481984292072e-01  6.3288314333054629e-01  5.1446759436392697e-01  5.0955243043662191e-01  5.3679528343028904e-01  6.8298960397656772e-01  6.4210056268085680e-01  6.0461489712870076e-01  5.9657176138838774e-01  6.3863035884415931e-01  5.9816406441545833e-01  6.2327523918056227e-01  5.4883375066999984e-01  4.9324754082153938e-01  5.2482714213213222e-01  6.8064230698178041e-01  6.5614532468227549e-01  5.9400802529211294e-01  6.0645115434256780e-01  6.6154403771439230e-01  6.1623662274917901e-01  6.4922467464637723e-01  5.9977212596097695e-01  6.1405305667532573e-01  6.6534291820622826e-01  6.1906856659003540e-01  6.6631344479622967e-01  6.1266596657734407e-01  6.5084043782291912e-01  6.0965385326110011e-01  6.1327850141167140e-01  6.6720431671621605e-01  6.2759355157467289e-01  6.6516626605921314e-01  6.0965088885885410e-01  6.4134941853570826e-01  5.7598681340520463e-01  5.8728473658845670e-01  6.0164001232758546e-01  6.4878263561016891e-01  5.6088783199270797e-01  6.1777134469511885e-01  6.5151209297595281e-01  6.1659968236463258e-01  6.4204544969029032e-01  5.5189462041505544e-01  5.6589636792351905e-01  5.4927971013692412e-01  5.3643374233900354e-01  5.6895260091492883e-01  5.6452062365968303e-01  5.5531334432037782e-01  5.4686734184984054e-01  5.4779646668138360e-01  5.3534893549820350e-01  5.5427873924991578e-01  5.9316924329262344e-01  5.5945812300008446e-01  5.5938247409312436e-01  5.2659333850818335e-01  6.9128615676908733e-01  5.0122807993072127e-01  5.5161714639388193e-01  5.1648732087270244e-01  4.9176854203893344e-01  5.2777676808262530e-01  4.8091649764229222e-01  6.9973796130826826e-01  5.7369675636244266e-01  5.3193801149987030e-01  5.6876114721975124e-01  5.2096852739302568e-01  5.2063197148910023e-01  5.0987379972792257e-01  4.9962843216576086e-01  4.7295327841457119e-01  5.4898866387632295e-01  6.9934868118159021e-01  5.6341857469635404e-01  5.3624352677361364e-01  5.2081819005464525e-01  5.8026521018967847e-01  5.2948537979111654e-01  4.9073693252429013e-01  5.8447732405317732e-01  5.5388405127854989e-01  5.6114717861188079e-01  5.3507012631281536e-01  5.3786116399893502e-01  6.9501004111123788e-01  5.8422341426345559e-01  4.9851213961650803e-01  4.6751820876963118e-01  5.2102908140391568e-01  4.7673583699370642e-01  4.3367796295558153e-01  4.7744513072854866e-01  4.8407255114217634e-01  5.3724849258652929e-01  5.7443602673582239e-01  6.7544185565431214e-01  7.0547619356360791e-01  4.8171461925558035e-01  4.7263730709149354e-01  5.1547997667741796e-01  4.7778752360221305e-01  4.7904015561559993e-01  4.8060039105388935e-01  4.7295417077853441e-01  4.7940646884829535e-01  4.7432852414633925e-01  6.8559077344800323e-01  4.7663828205744718e-01  4.7385225816531656e-01  4.8353302456145342e-01  4.7642423947239593e-01  4.8050630422593887e-01  4.6539433793497181e-01  4.7577074974789674e-01  5.2646243100842394e-01  4.5556640606746013e-01  4.7533886922882890e-01  5.1078354270449922e-01  4.5027333427058974e-01  4.5072188742271535e-01  5.0093569019131901e-01  4.4540635559277586e-01  4.6224013703222749e-01  5.1287262645680087e-01  4.4047916092752060e-01  5.1652148274531107e-01  5.4686666725941613e-01  5.1976245497329054e-01  4.3992741173038197e-01  5.2722236243193255e-01  6.8870510688206066e-01  5.3770380130892637e-01  4.5061716236650307e-01  4.9007245116719128e-01  4.3693806912352368e-01  6.9220174876988239e-01  4.4964107617355087e-01  4.8958682059937680e-01  4.5602162138612645e-01  4.8249210645999197e-01  4.7422869212048135e-01  4.7174639267872082e-01  5.2950032992494023e-01  4.3895218606624575e-01  4.5289326092697318e-01  6.2685719527016570e-01  6.9009432791829406e-01  4.7577815633248477e-01  4.4720071721525523e-01  5.2863463724484594e-01  6.9289548525687206e-01  5.2067469960439117e-01  5.1456511716235120e-01  4.3404536942295840e-01  5.1623378168235157e-01  5.4525456380450821e-01  5.0555789705404641e-01  7.1225076704927881e-01  4.9151710061832105e-01  5.5946139582760679e-01  7.1449652961418719e-01  7.1663584209292130e-01  4.2749676546635806e-01  5.3577788404296900e-01  5.6276372683109754e-01  5.0225415234157633e-01  4.9192373126880601e-01  5.0751924820943439e-01  4.9489389258370514e-01  5.2152232246831343e-01  4.5899353207828586e-01  5.1388825941812000e-01  5.6754484902861502e-01  4.9035480501942857e-01  4.3121211230154144e-01  5.2443074473268592e-01  5.7288877549974737e-01  4.7534092865755240e-01  5.2022360616699470e-01  4.8039534059549549e-01  4.8131152022159318e-01  5.1246183863323291e-01  6.3630359076927467e-01  5.6672286797348947e-01  5.6377585031654298e-01  6.8914065700605220e-01  7.1468564517423017e-01  4.1683111228250097e-01  5.5957259492029054e-01  5.9318638244305011e-01  5.8741795559585708e-01  4.9265135057771692e-01  5.2688831814647696e-01  5.1470965480921405e-01  5.2287217241156381e-01  6.0168974076896153e-01  5.8745968726706554e-01  5.9739349135509523e-01  4.7807369048746995e-01  5.8047540795736474e-01  5.4934235680579213e-01  5.1637215591830077e-01  4.0620154167721467e-01  5.1984624881044039e-01  5.6595869340412608e-01  5.7482116078457646e-01  7.1535672404414474e-01  5.2347477657441654e-01  7.1571993767535458e-01  5.7305274382943894e-01  4.6755538407918729e-01  5.0845414499596653e-01  5.5645791424895108e-01  5.1275551735111047e-01  5.9400501540423689e-01  5.7978324162003514e-01  4.2906977148004954e-01  5.0899045282911037e-01  5.7482998706003985e-01  5.1354050000585749e-01  5.7524054479399145e-01  3.7230561708189364e-01  3.7066712664366064e-01  3.5973900224085309e-01  3.3702019714246384e-01  3.2540476575147492e-01  3.7349453211120159e-01  3.3110263595647693e-01  3.2675973240965622e-01  3.5937550302932447e-01  3.5914656065689060e-01  3.6913614102942188e-01  3.5697572785325704e-01  3.3355404103856284e-01  1.5673242908843966e-02  3.4507541080475507e-01  1.7611389558803182e-02  3.4040277448104622e-01  1.3306787894241199e-02  3.5317711046403322e-01  1.8223010966240100e-02  1.5450840459178767e-02  3.4505428098592572e-01  3.8088448297108207e-01  2.2984019841789393e-02  3.2709671309266142e-01  3.2738678352072687e-01  3.6807952101567859e-01  2.1699105879671589e-02  2.1583853916436215e-02  3.3217800777250339e-01  3.2454893605006592e-02  4.0132136012153916e-02  3.7840329278006408e-02  3.1891439310439651e-01  4.0262195378201297e-02  3.6645158581725096e-01  4.1047321126565312e-02  4.0495174433540157e-02  4.2137317177276999e-02  5.3671493423701061e-02  5.3795673697352095e-02  3.1467396721253499e-01  4.1432921475551679e-02  4.1787343570709505e-02  4.5452725883057044e-02  4.6595246565207166e-02  6.3537452943305322e-03  4.2530986784278732e-03  6.8671041510986422e-02  5.6662981134048551e-03  6.4592451897059599e-03  6.3409016971909635e-02  5.5724934277016245e-03  4.0124756266845807e-03  2.9762356887677749e-01  2.5495370967471026e-01  2.6103367605611760e-01  2.4216257521539528e-01  2.0436142790634920e-01  1.9275666114160855e-01  2.2413701814110307e-01  1.7361384957888698e-01  2.0211353163768142e-01  1.4663825702346436e-01  1.7327817797184072e-01  1.5585854707742339e-01  2.3565609638144075e-01  1.9730720173013772e-01  1.4428328158365528e-01  1.6405088279846350e-01  1.1627431701526786e-01  1.3214859128489811e-01  1.8838179672246089e-01  1.4491101698927406e-01  1.0282554019459424e-01  1.1230016291262845e-01  1.5141492394173978e-01  1.1785169347468033e-01  1.6454799336995896e-01  1.2091627228813830e-01  1.5956486546029691e-01  1.1817510698749289e-01  1.5381488606572830e-01  8.2325066463697125e-02  2.0904727968073805e-01  1.1305761677744208e-01  1.4508802505085697e-01  1.9268220309684997e-01  1.8100719011690858e-01  1.3272881112196053e-01  1.6603465594016215e-01  1.1809670505973345e-01  1.4880978646127732e-01  2.0096450873271920e-01  1.8073015850325139e-01  8.5966156220052117e-02  1.0377743433718131e-01  2.3478539709264490e-01  2.4440277685199116e-01  2.3423789396529279e-01  2.1337035365902030e-01  1.5933436417442129e-01  1.9704766493868867e-01  1.3673075510141799e-01  1.6260393719200603e-01  2.1525600834692227e-01  1.8313705233984220e-01  1.3688228770319086e-01  1.5411870069080122e-01  2.0633762234193612e-01  1.6856344293113201e-01  1.2332119238746815e-01  1.3751514863405365e-01  1.8666454552168296e-01  1.4750281331998619e-01  1.0640309346841567e-01  1.1310349276215297e-01  1.5463006335331245e-01  1.1566939380645046e-01  1.5372916555098701e-01  1.1307396704515751e-01  1.4824490680948818e-01  1.0567150388315505e-01  1.3644978345767436e-01  8.2396002567698773e-02  9.1431541266873223e-02  1.1708145253429314e-01  1.6894139624749446e-01  1.4599089219414388e-01  2.0127853766072512e-01  2.0815576102468208e-01  1.7434354376380076e-01  7.7409903096685828e-02  1.2091720527351076e-01  1.4200579463078059e-01  2.0688451539953112e-01  1.6232514922602911e-01  2.2752454267432812e-01  1.8095193092067316e-01  2.3841143041899918e-01  2.0020478092859195e-01  1.4006552400570962e-01  1.5077808557581543e-01  2.1392041180120591e-01  1.6094575797754268e-01  2.1159250684679651e-01  1.6397191224579696e-01  2.1830270960335094e-01  1.6067548477042951e-01  2.1151096907107869e-01  1.5612589504148891e-01  1.9138098645123724e-01  1.4787293040791899e-01  1.7867585994923074e-01  1.3420760812533378e-01  1.6284600788252612e-01  1.1757876986187998e-01  1.4154400467973505e-01  9.8843218737518834e-02  1.1438167285758950e-01  1.0696711000728840e-01  1.6410399477150267e-01  1.3323643639403604e-01  7.9201985120073939e-02  6.3206397564367134e-02  1.9085654736656588e-01  1.4648946000998084e-01  9.6665504265767629e-02  2.1819150653982483e-01  2.0354732053081237e-01  1.5472721553219670e-01  2.0094234694821547e-01  1.6400840132373989e-01  2.0066278714984920e-01  1.5581437750004956e-01  1.9299458618487730e-01  1.4587941103248495e-01  1.9013266371138982e-01  2.4438238647518615e-01  2.6062277806639300e-01  6.8320246936669729e-02  6.9671183666026745e-02  2.5427404143774401e-01  1.3153352913931016e-01  1.6791818421594928e-01  1.1222302863131955e-01  2.6465583549510496e-01  2.1536483462091507e-01  1.1960582090346836e-01  4.7764996929386169e-02  5.1535752789830920e-02  2.6264118362260686e-01  2.2563800228377875e-01  2.2275004253864711e-01  2.0940446426337314e-01  1.4967477495286016e-01  1.8163664715704250e-01  1.2942817890492611e-01  1.5767689876472177e-01  2.1065254890484386e-01  1.8464279798459857e-01  1.3639306916617178e-01  1.5865733384889261e-01  1.1408107763539542e-01  1.3222441452193101e-01  1.7940561735588539e-01  1.4911540748515872e-01  1.9702299557363312e-01  1.6254470199017335e-01  1.1989817684965692e-01  1.3012906868169288e-01  9.2301811357163172e-02  1.7405407104145273e-01  1.3719480178790164e-01  1.8043403383578341e-01  1.4071608422116252e-01  1.8324857514379145e-01  1.3989697443673516e-01  1.8167127976971845e-01  1.0577739740915887e-01  8.3246982903536992e-02  6.0482218210990805e-02  2.2912608639732449e-01  2.3790459884613588e-01  2.3180007481378653e-01  2.4886324687204711e-01  1.3464318065590419e-01  1.8357437133657298e-01  9.8084703919986319e-02  2.2783194783387770e-01  2.2204016432320345e-01  1.7484601170139730e-01  2.6621315096300635e-01  6.7080865726520791e-02  4.0224914809620906e-02  3.4728929878768904e-02  4.2766284392684553e-02  9.1375011682328880e-02  7.4447180052897216e-02  1.1066504668468671e-01  3.5213479847972594e-02  4.9778508314959870e-02  1.5734928497481968e-01  5.9615415077833162e-02  6.6779033901660486e-04  3.1351178403912067e-04  2.0167482603305054e-01  1.5946599107902168e-01  2.8693490443187242e-01  2.9294502566547842e-01  5.4655177639009719e-02  2.8732795116840965e-01  3.0935217543279381e-01  2.7781582431333240e-01  2.4520118447732037e-01  1.0035571560753505e-01  8.8960804899730031e-02  2.4618903032307966e-02  2.4296083787134062e-01  3.2786347879527861e-01  2.6098973849596946e-01  2.6877468053147036e-01  2.8417685935386977e-01  2.5865499699436151e-01  2.5325618155576185e-01  2.8165751609253131e-01  3.1454106757275058e-01  2.9483241922474901e-01  2.8555216641596948e-01  1.9665150138510806e-02  3.3035557237311286e-01  1.0792290513097264e-01  3.0327121224716208e-01  9.1078798712108874e-02  3.2333636761872303e-01  2.8262714180822224e-01  2.7903409229555137e-01  2.7373165679763917e-01  3.2121002463703213e-01  2.8452990005883499e-01  2.9937780886308346e-01  2.6607549171290912e-01  8.8158006888783821e-02  6.0499626071693659e-02  6.7152277314889305e-02  4.1044917976530419e-02  3.1677836306609036e-01  2.8155364748412226e-01  3.0866623217301453e-01  2.6164577281806300e-01  2.5790457165358083e-01  2.7059017168322252e-01  2.5728851870648634e-01  2.8582551640116943e-01  7.8584614846725187e-02  3.1702757193907499e-01  2.3219207615819160e-01  1.2021010865312019e-01  2.7294762008199058e-01  2.4632015947113195e-01  2.5554022898843792e-01  2.1817538525237593e-01  3.0330041238199046e-01  3.3219642361745805e-01  2.8266628698093621e-01  2.9094764469210721e-01  2.8614788667010360e-01  3.4275337501239467e-01  3.4841494797754857e-01  3.0604492684498175e-01  3.1248197797401583e-01  2.9385513582531181e-01  1.2319247848609388e-01  1.1202563860889446e-01  3.2994767336905212e-01  2.8436295692565067e-01  2.8274599753144353e-01  3.1829448523541815e-01  2.7231043202601191e-01  3.2906871817848776e-01  9.4134649197083586e-02  3.5089368587351877e-01  3.2327159486370260e-01  8