<?xml version="1.0"?>
<VTKFile type="UnstructuredGrid"  version="0.1"  >
<UnstructuredGrid>
<Piece  NumberOfPoints="1078" NumberOfCells="2058">
<Points>
<DataArray  type="Float64"  NumberOfComponents="3"  format="ascii">0 0 0  0 1 0  1 1 0  1 0 0  1.1 -0.1 0  -0.1 -0.1 0  1.1 1.1 0  -0.1 1.1 0  0.5179102851745738 0.5754507472541734 0  0 0.9499999999997918 0  0 0.8999999999995836 0  0 0.8499999999996529 0  0 0.7999999999999998 0  0 0.7500000000003466 0  0 0.7000000000006934 0  0 0.6500000000010401 0  0 0.6000000000013869 0  0 0.5500000000017335 0  0 0.5000000000020587 0  0 0.4500000000018723 0  0 0.4000000000016644 0  0 0.3500000000014564 0  0 0.3000000000012483 0  0 0.2500000000010403 0  0 0.2000000000008322 0  0 0.1500000000006241 0  0 0.100000000000416 0  0 0.05000000000020799 0  0.04999999999989965 0 0  0.09999999999981467 0 0  0.1499999999997036 0 0  0.1999999999995579 0 0  0.2499999999994121 0 0  0.2999999999992664 0 0  0.3499999999991206 0 0  0.3999999999989749 0 0  0.4499999999988292 0 0  0.4999999999986943 0 0  0.5499999999988151 0 0  0.5999999999989468 0 0  0.6499999999990784 0 0  0.69999999999921 0 0  0.7499999999993417 0 0  0.7999999999994734 0 0  0.8499999999996051 0 0  0.8999999999997368 0 0  0.9499999999998684 0 0  1 0.04999999999989965 0  1 0.09999999999981467 0  1 0.1499999999997036 0  1 0.1999999999995579 0  1 0.2499999999994121 0  1 0.2999999999992664 0  1 0.3499999999991206 0  1 0.3999999999989749 0  1 0.4499999999988292 0  1 0.4999999999986943 0  1 0.5499999999988151 0  1 0.5999999999989468 0  1 0.6499999999990784 0  1 0.69999999999921 0  1 0.7499999999993417 0  1 0.7999999999994734 0  1 0.8499999999996051 0  1 0.8999999999997368 0  1 0.9499999999998684 0  0.9499999999997918 1 0  0.8999999999995836 1 0  0.8499999999996529 1 0  0.7999999999999998 1 0  0.7500000000003466 1 0  0.7000000000006934 1 0  0.6500000000010401 1 0  0.6000000000013869 1 0  0.5500000000017335 1 0  0.5000000000020587 1 0  0.4500000000018723 1 0  0.4000000000016644 1 0  0.3500000000014564 1 0  0.3000000000012483 1 0  0.2500000000010403 1 0  0.2000000000008322 1 0  0.1500000000006241 1 0  0.100000000000416 1 0  0.05000000000020799 1 0  -0.1 1.05000000000004 0  -0.1 1.000000000000079 0  -0.1 0.9500000000001624 0  -0.1 0.9000000000003032 0  -0.1 0.850000000000444 0  -0.1 0.8000000000005848 0  -0.1 0.7500000000007256 0  -0.1 0.7000000000008665 0  -0.1 0.6500000000010508 0  -0.1 0.6000000000012352 0  -0.1 0.5500000000014196 0  -0.1 0.500000000001539 0  -0.1 0.4500000000014195 0  -0.1 0.4000000000013 0  -0.1 0.3500000000011588 0  -0.1 0.3000000000010178 0  -0.1 0.2500000000008986 0  -0.1 0.2000000000007579 0  -0.1 0.1500000000006174 0  -0.1 0.1000000000005272 0  -0.1 0.05000000000040083 0  -0.1 2.671196597248127e-13 0  -0.1 -0.0499999999998666 0  -0.0500000000000906 -0.1 0  -1.730560139634463e-13 -0.1 0  0.04999999999975802 -0.1 0  0.09999999999961506 -0.1 0  0.1499999999994613 -0.1 0  0.199999999999302 -0.1 0  0.2499999999991446 -0.1 0  0.2999999999990088 -0.1 0  0.3499999999988296 -0.1 0  0.3999999999986936 -0.1 0  0.4499999999985143 -0.1 0  0.4999999999984002 -0.1 0  0.5499999999985247 -0.1 0  0.5999999999986493 -0.1 0  0.6499999999987955 -0.1 0  0.6999999999989417 -0.1 0  0.7499999999990659 -0.1 0  0.7999999999992116 -0.1 0  0.8499999999993573 -0.1 0  0.8999999999994526 -0.1 0  0.949999999999584 -0.1 0  0.9999999999997226 -0.1 0  1.049999999999861 -0.1 0  1.1 -0.0500000000000906 0  1.1 -1.730560139634463e-13 0  1.1 0.04999999999975802 0  1.1 0.09999999999961506 0  1.1 0.1499999999994613 0  1.1 0.199999999999302 0  1.1 0.2499999999991446 0  1.1 0.2999999999990088 0  1.1 0.3499999999988296 0  1.1 0.3999999999986936 0  1.1 0.4499999999985143 0  1.1 0.4999999999984002 0  1.1 0.5499999999985247 0  1.1 0.5999999999986493 0  1.1 0.6499999999987955 0  1.1 0.6999999999989417 0  1.1 0.7499999999990659 0  1.1 0.7999999999992116 0  1.1 0.8499999999993573 0  1.1 0.8999999999994526 0  1.1 0.949999999999584 0  1.1 0.9999999999997226 0  1.1 1.049999999999861 0  1.05000000000004 1.1 0  1.000000000000079 1.1 0  0.9500000000001624 1.1 0  0.9000000000003032 1.1 0  0.850000000000444 1.1 0  0.8000000000005848 1.1 0  0.7500000000007256 1.1 0  0.7000000000008665 1.1 0  0.6500000000010508 1.1 0  0.6000000000012352 1.1 0  0.5500000000014196 1.1 0  0.500000000001539 1.1 0  0.4500000000014195 1.1 0  0.4000000000013 1.1 0  0.3500000000011588 1.1 0  0.3000000000010178 1.1 0  0.2500000000008986 1.1 0  0.2000000000007579 1.1 0  0.1500000000006174 1.1 0  0.1000000000005272 1.1 0  0.05000000000040083 1.1 0  2.671196597248127e-13 1.1 0  -0.0499999999998666 1.1 0  0.5517089995415477 0.5694927199320123 0  0.5812048144697766 0.5487827995032879 0  0.5921615778939326 0.5145521329491338 0  0.5941354287416012 0.4803260906674516 0  0.5931009541159841 0.4465354230488159 0  0.5891771125264417 0.4131733916018542 0  0.5820428468901468 0.38027769874416 0  0.5707777105564107 0.3483498783325851 0  0.552870910702025 0.318983304108486 0  0.5245342215685159 0.2990083497536354 0  0.4914722659780849 0.2987323762113527 0  0.4610116650885525 0.307778884623443 0  0.4324894307973137 0.3197163691111427 0  0.4049368157917957 0.3331296129726899 0  0.3781388294804562 0.3475430146922316 0  0.3519937915415725 0.3627117202230969 0  0.3264353428073681 0.3785039861252378 0  0.3015383887923204 0.394855978652885 0  0.277291202046663 0.4117944514196663 0  0.2538926683694147 0.429634542063493 0  0.2319104685194382 0.4491515329691593 0  0.2134231928474661 0.4725317863368287 0  0.2178943747614885 0.5007557228396581 0  0.243297821479934 0.5184653778885273 0  0.2710899742257621 0.5309894156114915 0  0.299836398393576 0.541201810587718 0  0.3292976897388444 0.5499449456459684 0  0.3593612788286323 0.5575271243446422 0  0.3899574016834041 0.5639399565192432 0  0.4211098580872132 0.5691729203139013 0  0.4527602933891153 0.5731879296121504 0  0.4849531925876109 0.5755584254319798 0  0.5623452823567213 0.4333247345874945 0  0.4057139157882492 0.3682073331945169 0  0.4453908662832725 0.5396353339033818 0  0.3288398555707957 0.4115327238225471 0  0.3781271115946874 0.5317228809111461 0  0.4614673023962014 0.3434551146498644 0  0.5048421270202671 0.5441083249583463 0  0.3197110076740631 0.5172695849222905 0  0.5483705675201109 0.3710855203339286 0  0.2817608599794094 0.4453345813242836 0  0.562465459248407 0.4979979001689992 0  0.5167816453974643 0.3258339316175552 0  0.2648120917720498 0.4970335174655735 0  0.2387995391543644 0.4833001858243396 0  0.5578257223880605 0.5320860326876254 0  0.5275389352317754 0.5160845333329834 0  0.5362093969957196 0.4794165315415614 0  0.5050697259230547 0.4918303069083996 0  0.5102996665730033 0.4584568852959993 0  0.4798080648777236 0.4698465727878463 0  0.485052323611752 0.4356148600425295 0  0.4545764986283182 0.4471369237035421 0  0.4590863224774161 0.4130371078524321 0  0.4291382522956814 0.4241928397936349 0  0.4244570534960579 0.4583554227508129 0  0.3995213360894603 0.435023747090835 0  0.489434492952547 0.4015720188813187 0  0.3950276488561781 0.468752221680848 0  0.371590939293923 0.4457493736119214 0  0.367326707940015 0.4777674943037179 0  0.4187019156216051 0.4927004194293966 0  0.3765964648877227 0.4129233324532977 0  0.3442201047936052 0.4558968358296822 0  0.4710494794763561 0.5069382314715033 0  0.4618978983132791 0.3790108611672072 0  0.4894988646923899 0.3674347915880133 0  0.5141351836487817 0.425903705603968 0  0.4491822114948515 0.4815077886583402 0  0.5229301826678601 0.3928595834769311 0  0.4325029595781579 0.3905355108460496 0  0.4038766165746608 0.401786104668685 0  0.4124122331147292 0.5298019334268695 0  0.3486497548645967 0.5253364960199833 0  0.475922627390671 0.5430711008786947 0  0.3043208754477054 0.4271094964250248 0  0.3126804145524996 0.4602404362549589 0  0.4332781709735626 0.3557103750496472 0  0.3387040543438277 0.4905460939851928 0  0.2918501886869258 0.5091082227401266 0  0.2595975540458226 0.4636104323766389 0  0.3781222750521815 0.3809096421037065 0  0.5576635167102557 0.401745557500849 0  0.5645448500843949 0.4647790220588154 0  0.3910982513094003 0.5008358957833733 0  0.2851837523002785 0.4775750165693821 0  0.5417014983019128 0.3452769523448976 0  0.3526409863281173 0.3950666585681676 0  0.4899962025053122 0.3342457251025972 0  0.4409142043330959 0.5100234533930268 0  0.5188751621993573 0.3589485249727375 0  0.5381774710943976 0.4479400133267466 0  0.3097250564408202 0.4909807364567046 0  0.3509939335367365 0.4255747161254186 0  0.4960071065696224 0.5192872881036055 0  0.5312912369101145 0.5478511597263129 0  0.3648604421923841 0.5052756073618654 0  0.5391358653348679 0.4203837338912192 0  0.3259527033114004 0.4365539405379441 0  0.591352807950365 0.3605730684020929 0  0.6105596878542677 0.4639668213883144 0  0.3414553638627158 0.5709211113445958 0  0.5326358859919833 0.5888451400832501 0  0.9814645615336197 0.7023021051981727 0  0.6448287392350124 0.9843674875417222 0  0.4338187908976544 0.589154487754281 0  0.9898163314623813 0.539266690490713 0  0.9802682997508254 0.2757408275085203 0  0.2863818139334205 0.9737470872934 0  0.3291262930749113 0.3528332247692754 0  0.4089105851498344 0.3078786727309519 0  0.4422635434075576 0.9819832972022189 0  0.2539556298007864 0.5411296274672008 0  0.05847836969159178 0.752046788600687 0  0.706046014255739 0.04539901483563558 0  0.2533205993688701 0.4031562455158851 0  0.6026510491128406 0.5330168147581336 0  0.800946414183071 0.9835283711574182 0  0.2388204653084092 0.0473704767672715 0  0.05734298507376937 0.2364706715355591 0  0.2107934861727856 0.4439977988552775 0  0.5566345111676452 0.04926525429338346 0  0.3990012013234783 0.04618025249176205 0  0.8491513055887244 0.04336867748003636 0  0.198245648774256 0.4881860538474863 0  0.4710276468915027 0.2876499842290374 0  0.0545060754515774 0.5971981812166828 0  0.9862088443653385 0.849248274789898 0  0.05294179793924435 0.3357208652647374 0  0.5936332284980973 0.561058921126227 0  0.6159922659460596 0.5482706423729119 0  0.608524796689
[...]
<PointData  Scalars="u"> 
<DataArray  type="Float64"  Name="u"  format="ascii">0.0000000000000000e+00  0.0000000000000000e+00  0.0000000000000000e+00  0.0000000000000000e+00  0.0000000000000000e+00  0.0000000000000000e+00  0.0000000000000000e+00  0.0000000000000000e+00  1.4747096099341805e-01  0.0000000000000000e+00  0.0000000000000000e+00  0.0000000000000000e+00  0.0000000000000000e+00  0.0000000000000000e+00  0.0000000000000000e+00  0.0000000000000000e+00  0.0000000000000000e+00  0.0000000000000000e+00  0.0000000000000000e+00  0.0000000000000000e+00  0.0000000000000000e+00  0.0000000000000000e+00  0.0000000000000000e+00  0.0000000000000000e+00  0.0000000000000000e+00  0.0000000000000000e+00  0.0000000000000000e+00  0.0000000000000000e+00  0.0000000000000000e+00  0.0000000000000000e+00  0.0000000000000000e+00  0.0000000000000000e+00  0.0000000000000000e+00  0.0000000000000000e+00  0.0000000000000000e+00  0.0000000000000000e+00  0.0000000000000000e+00  0.0000000000000000e+00  0.0000000000000000e+00  0.0000000000000000e+00  0.0000000000000000e+00  0.0000000000000000e+00  0.0000000000000000e+00  0.0000000000000000e+00  0.0000000000000000e+00  0.0000000000000000e+00  0.0000000000000000e+00  0.0000000000000000e+00  0.0000000000000000e+00  0.0000000000000000e+00  0.0000000000000000e+00  0.0000000000000000e+00  0.0000000000000000e+00  0.0000000000000000e+00  0.0000000000000000e+00  0.0000000000000000e+00  0.0000000000000000e+00  0.0000000000000000e+00  0.0000000000000000e+00  0.0000000000000000e+00  0.0000000000000000e+00  0.0000000000000000e+00  0.0000000000000000e+00  0.0000000000000000e+00  0.0000000000000000e+00  0.0000000000000000e+00  0.0000000000000000e+00  0.0000000000000000e+00  0.0000000000000000e+00  0.0000000000000000e+00  0.0000000000000000e+00  0.0000000000000000e+00  0.0000000000000000e+00  0.0000000000000000e+00  0.0000000000000000e+00  0.0000000000000000e+00  0.0000000000000000e+00  0.0000000000000000e+00  0.0000000000000000e+00  0.0000000000000000e+00  0.0000000000000000e+00  0.0000000000000000e+00  0.0000000000000000e+00  0.0000000000000000e+00  0.0000000000000000e+00  0.0000000000000000e+00  0.0000000000000000e+00  0.0000000000000000e+00  0.0000000000000000e+00  0.0000000000000000e+00  0.0000000000000000e+00  0.0000000000000000e+00  0.0000000000000000e+00  0.0000000000000000e+00  0.0000000000000000e+00  0.0000000000000000e+00  0.0000000000000000e+00  0.0000000000000000e+00  0.0000000000000000e+00  0.0000000000000000e+00  0.0000000000000000e+00  0.0000000000000000e+00  0.0000000000000000e+00  0.0000000000000000e+00  0.0000000000000000e+00  0.0000000000000000e+00  0.0000000000000000e+00  0.0000000000000000e+00  0.0000000000000000e+00  0.0000000000000000e+00  0.0000000000000000e+00  0.0000000000000000e+00  0.0000000000000000e+00  0.0000000000000000e+00  0.0000000000000000e+00  0.0000000000000000e+00  0.0000000000000000e+00  0.0000000000000000e+00  0.0000000000000000e+00  0.0000000000000000e+00  0.0000000000000000e+00  0.0000000000000000e+00  0.0000000000000000e+00  0.0000000000000000e+00  0.0000000000000000e+00  0.0000000000000000e+00  0.0000000000000000e+00  0.0000000000000000e+00  0.0000000000000000e+00  0.0000000000000000e+00  0.0000000000000000e+00  0.0000000000000000e+00  0.0000000000000000e+00  0.0000000000000000e+00  0.0000000000000000e+00  0.0000000000000000e+00  0.0000000000000000e+00  0.0000000000000000e+00  0.0000000000000000e+00  0.0000000000000000e+00  0.0000000000000000e+00  0.0000000000000000e+00  0.0000000000000000e+00  0.0000000000000000e+00  0.0000000000000000e+00  0.0000000000000000e+00  0.0000000000000000e+00  0.0000000000000000e+00  0.0000000000000000e+00  0.0000000000000000e+00  0.0000000000000000e+00  0.0000000000000000e+00  0.0000000000000000e+00  0.0000000000000000e+00  0.0000000000000000e+00  0.0000000000000000e+00  0.0000000000000000e+00  0.0000000000000000e+00  0.0000000000000000e+00  0.0000000000000000e+00  0.0000000000000000e+00  0.0000000000000000e+00  0.0000000000000000e+00  0.0000000000000000e+00  0.0000000000000000e+00  0.0000000000000000e+00  0.0000000000000000e+00  0.0000000000000000e+00  0.0000000000000000e+00  0.0000000000000000e+00  0.0000000000000000e+00  0.0000000000000000e+00  0.0000000000000000e+00  0.0000000000000000e+00  0.0000000000000000e+00  0.0000000000000000e+00  0.0000000000000000e+00  1.3086567431912516e-01  1.2207535321405615e-01  1.3546314010503502e-01  1.4733293291124760e-01  1.5340477680600750e-01  1.5430548785820150e-01  1.5055733664251142e-01  1.4271521472723608e-01  1.3422534426505192e-01  1.3138290763075833e-01  1.4650233616364738e-01  1.6260859282494797e-01  1.7487495179428833e-01  1.8315981819792021e-01  1.8691645938422219e-01  1.8637302119772056e-01  1.8175472053837147e-01  1.7311754126646775e-01  1.6086505830926814e-01  1.4504057141457627e-01  1.2652135499726799e-01  1.0521680251543067e-01  1.0454141191030879e-01  1.2463576874470654e-01  1.4206946684533445e-01  1.5672459588453305e-01  1.6802666621182710e-01  1.7538146513578068e-01  1.7916180798436729e-01  1.7834434956946782e-01  1.7249778589714770e-01  1.6193842379045723e-01  2.0000633721545377e-01  2.3037698334361334e-01  2.2292357423251372e-01  2.1748065146978704e-01  2.2049791286352638e-01  2.1368620233695595e-01  1.9980424299488844e-01  2.0126629483190406e-01  1.9108442641393239e-01  1.8833471415468284e-01  1.8798242229003106e-01  1.7635120258119208e-01  1.6610280320255202e-01  1.4286766759360875e-01  1.7053968200048392e-01  2.0987840897687535e-01  2.2201132698251258e-01  2.4033951572378101e-01  2.4797123188508755e-01  2.6222115676632096e-01  2.6284674315340406e-01  2.7259154658210472e-01  2.6532257353758870e-01  2.7041121518104599e-01  2.7310966321231211e-01  2.6737883032187248e-01  2.5096594678208173e-01  2.6560873818121572e-01  2.5776567909283649e-01  2.5211534782733197e-01  2.6102954092399661e-01  2.5024397622792838e-01  2.4235901858108336e-01  2.4736359680882888e-01  2.4567376867145949e-01  2.2921142778506712e-01  2.4439563386094509e-01  2.6602285210697441e-01  2.2655128952198322e-01  2.5444235397066745e-01  2.5547875081431615e-01  2.3275254391041225e-01  2.1305943941910838e-01  2.1309651391388790e-01  2.0408637354628484e-01  2.1888158434214594e-01  2.2538300712618758e-01  2.3143033079013353e-01  1.8464067470619355e-01  1.6764629194332462e-01  2.2904018893791314e-01  1.9746805511792376e-01  1.9641208669010060e-01  2.5047596992740045e-01  1.9199509091643588e-01  1.7624492951231557e-01  2.2441267079343946e-01  1.9814526013471959e-01  2.4974212546178623e-01  2.0643189305044815e-01  2.2602738992184929e-01  2.0903242017033014e-01  2.4084657658632377e-01  2.2688850753272716e-01  1.7788495210347791e-01  2.3687433512319953e-01  2.2200209541780785e-01  2.2586795624068695e-01  1.2107000501612386e-01  1.2134560262985196e-01  1.4250135376564182e-01  1.1522613276951520e-01  -1.3584059164216599e-02  -1.1299533282331877e-02  1.4343310416390717e-01  -7.3948121167175833e-03  -1.2074589419944387e-02  -1.4382083220692220e-02  1.5057947405327582e-01  1.4482166107528888e-01  -1.1144505185760800e-02  1.1128473499990381e-01  -1.8173881420395849e-02  -1.6657512243518437e-02  1.2217214682169429e-01  1.0450815115723583e-01  -1.1817783044665475e-02  -1.0844190094339972e-02  -9.6181522145234680e-03  9.4325792226383140e-02  -8.8035790347482760e-03  -5.9249423020510074e-03  -1.8350492466766323e-02  8.1729987844217797e-02  1.2892777959418683e-01  -4.2575650239516389e-03  -9.6131294686082527e-03  -2.1250697694426201e-03  9.3267006979973144e-02  7.8318634111813418e-02  6.8116823207483981e-02  5.5372048772059194e-02  4.5540027966818254e-02  3.4061008060459280e-02  2.4035269772471890e-02  1.3916854255729076e-02  3.9668072111748278e-03  1.3197468630694931e-02  2.1711759488668273e-02  -6.0148305627310784e-03  1.2461890059013785e-03  -6.6843296369916384e-03  -1.5467634090455561e-02  -1.0210812968581624e-02  -2.4214001524383182e-02  -2.8735704881628767e-02  -2.0158505806251139e-02  -6.0698001396211178e-03  -1.7405416736436988e-02  -3.7341652039606277e-03  -1.6065179545131578e-02  -3.3664402005890632e-03  -1.6020881039253802e-02  -4.5916284381047057e-03  -3.5022967293893835e-02  -3.8961688377723035e-02  -1.7225354960856715e-02  -7.6530796303450289e-03  -2.6520199308733051e-02  -4.3011807017974406e-02  -4.6062876762120411e-02  -1.9598048160021246e-02  -1.2167602279604952e-02  -4.7920301072281568e-02  -4.9886665126896219e-02  -4.7989828029652119e-02  3.1798979292421664e-03  -3.6936085215637762e-03  -1.7168432821759210e-02  -1.0784147337501803e-02  -2.2118526591541534e-02  -5.0373346236614831e-02  -4.8405038060362483e-02  5.1543167414105986e-03  -4.1601510857005039e-03  -4.4911743041473273e-02  1.1687555517464440e-02  1.2981899473144896e-02  1.9186691640952866e-03  -2.5786913335114132e-02  -5.0493331541528831e-02  -1.7566249790679837e-02  -4.9457697571744175e-02  -1.0639875063793394e-02  -5.7937563250026183e-03  -1.1099865274336491e-02  -1.3287553982511035e-02  2.4254426721725925e-02  7.8366451707703053e-02  6.1396299280680106e-02  5.7736144692003291e-02  4.4096955768303976e-02  4.5647335434621981e-02  3.9863598133044506e-02  5.8816552640044345e-02  -4.7288476698369018e-02  -1.2497280485216056e-02  -2.7100619462710196e-02  -1.3974721934339004e-02  -7.8106502917019262e-03  -4.4056139382407093e-02  1.9288839561592969e-02  5.1835235461945364e-02  3.3067339251138056e-02  -4.8031711132856994e-02  -1.9266403813393066e-02  1.0575515062917509e-02  3.1268780811382263e-02  3.4251819027419986e-02  -4.3426489526877832e-02  -4.4884423348409745e-02  -4.6633221785959106e-02  -4.3569939769865937e-02  -4.0887507914191344e-02  -4.0176846291665583e-02  -3.7087725117495772e-02  -3.6987690579930878e-02  -3.3677604716316957e-02  -3.4361117945462809e-02  -3.1265075924156747e-02  -3.2501496128891451e-02  -3.0056615576302355e-02  -2.4802431953506988e-02  -2.4540215184040114e-02  -2.9828496550901237e-02  -2.5547288631099997e-02  -1.6396419876587749e-02  -1.8749482589003202e-02  -2.7475320510656171e-02  -2.2199586120261110e-02  -2.9868214008146189e-02  -2.6166514648560270e-02  -1.5385771409750337e-02  -3.2149789498672816e-02  -2.0999624893628707e-02  1.0477282305250134e-01  -7.9615188631948584e-03  1.9086846027926202e-03  -1.5212251218430629e-02  -8.9900533542102172e-04  -9.8678792169027505e-03  4.8394905879136979e-03  -2.4711970623897357e-02  -3.2020748923465139e-02  1.8715071531169015e-02  -5.6872263781034098e-03  1.1064680114956597e-02  -3.0028517260606576e-02  -3.0125222591597674e-02  -3.9453771693696245e-02  -1.0788791108633806e-02  -4.5476143787402036e-02  -4.2818720832985740e-02  -3.0224473096059044e-02  1.0041279579504248e-01  8.1575252503875817e-02  7.7003598821144784e-02  8.2287388206045642e-02  -4.3739498860127728e-02  -4.3478872456532806e-02  4.4029693398950485e-02  2.9756018345351787e-02  3.9941117860689927e-02  6.2344687794038421e-02  -3.9676157287180568e-02  -1.8981742920959985e-02  -4.0433621459589772e-02  1.9643881643358254e-02  -3.0309391674452041e-02  -1.4884338857355694e-02  -2.4926189421484949e-03  1.0609409627584337e-02  -1.9945133276536081e-03  -3.1161499535385214e-02  -3.1774669367689828e-02  -3.0164898518341789e-02  -3.2937781280078744e-02  -1.3382133798078746e-02  -1.1096141346038464e-02  2.3146123199409549e-02  2.3899568857973466e-02  3.6763665528484354e-02  4.3158305659101212e-02  6.2976046990230475e-02  -3.0459161781145234e-02  -2.3258426413100670e-02  -2.7099295409315716e-02  -3.5606319071998786e-02  -3.8869000404077897e-02  -3.9603308841758444e-02  -3.5721429407839789e-02  1.9188297726587623e-02  -2.8043416261182792e-02  -3.0899919887043412e-02  1.6210236176900789e-02  -5.9442658624941245e-03  -3.3061670435838670e-03  1.0660925874173634e-02  1.3049165820907822e-02  3.0383007545858678e-02  3.1932285222078589e-02  1.3540504955333765e-02  5.2771941648180991e-02  4.8830276469616810e-02  7.3006065462560207e-02  6.6286513968550315e-02  4.1997518517501324e-02  5.8503199408553828e-02  -1.3049490993887925e-03  9.7499441540068246e-03  -1.0195394914959957e-02  -1.2156125200815028e-02  -1.3558507716652251e-02  6.2408622884529544e-02  -3.3015524447521739e-02  2.5275281244542095e-02  2.1776233305516989e-02  7.8448534153018907e-03  1.6933602793980925e-02  3.3986941811665609e-02  2.5872286701760984e-02  4.9293050252182148e-02  3.4834555856427772e-02  5.8134435883840659e-02  4.1184636024158422e-02  2.1941475137583662e-02  2.5611655086119896e-02  4.5864253667418170e-02  2.7759323548934296e-02  4.7684651759164920e-02  2.7745108639394816e-02  4.6338661864138091e-02  2.5384283921087349e-02  1.1197392643411554e-02  4.1959464071052027e-02  2.1077249276306380e-02  9.6962765060118125e-03  3.4922104078937456e-02  1.5558567219963100e-02  5.9812312473329276e-03  7.4717725734068388e-02  6.7414257586425094e-02  9.8391200954264166e-03  8.3507790832827375e-02  1.4736568021470157e-02  -2.6099125478501184e-02  -2.8096519240497685e-02  -3.6081727252543883e-02  2.7507336893246696e-02  5.2302670561126828e-02  8.7349187170198093e-03  -2.6028708630228239e-02  -2.9011018406598098e-02  -2.7654346742420507e-02  3.5835777712289490e-02  7.4710604803997951e-02  8.3811340364244133e-02  9.0205847693180172e-02  5.2552047145698728e-02  -3.9959341377112385e-02  -2.9613017354438022e-02  5.8421374003941026e-02  -9.7884518395941165e-03  -3.0362729939248170e-02  -3.1357782424534825e-02  -2.9887602094546776e-02  -2.9026631587139543e-02  5.5736323361984461e-02  4.5908603215117610e-02  7.0302071908601819e-03  -1.1915441795696798e-03  -4.4719987518854242e-04  -2.9263857268098308e-02  -3.0736975253605789e-02  -2.7428849828667098e-02  -2.6860164882968354e-02  -3.3789675064992385e-02  -3.1430776182555568e-02  -3.0865389610622424e-02  -3.8801866197725993e-02  -2.4872506447059618e-02  -2.9370975776542598e-02  -2.4007512053749347e-02  -2.9078958385044790e-02  -2.3458668239926050e-02  -2.9341401079203348e-02  6.3334941208533987e-02  5.2751499285988858e-02  3.2963223196208341e-02  7.4457894331376173e-02  6.0094063831475954e-02  8.4052152340844496e-02  6.6962483585006047e-02  9.1148728030654172e-02  7.1861608972301858e-02  9.6181436132299514e-02  7.3755338869969156e-02  9.7920037704963506e-02  7.6026894336800113e-02  9.7074399208192233e-02  7.2317313414719864e-02  9.3945682098402983e-02  6.5467149402647112e-02  7.9955003370438801e-02  5.4186233466994915e-02  6.8258516676110950e-02  4.7200195443467000e-02  9.2425272054784041e-02  7.8809589464198943e-02  5.5516270053430350e-02  6.4960725770746838e-02  -3.6877630846956257e-02  -3.0559099759270226e-02  -3.8156459605638855e-02  1.0666837054730129e-02  1.2061654575972909e-01  9.2009815201663431e-02  9.1798160745817387e-03  2.9047593350590910e-03  -2.6742255370421464e-02  5.8007710712815110e-02  5.2677589171180213e-02  6.9117459688965632e-03  6.8362520186651980e-03  6.9791100017262533e-02  9.9676944526293207e-02  -2.6610096410083172e-02  -3.1161470481501884e-02  1.0915378427097643e-01  -2.2565915244657748e-02  1.5205166376169343e-02  -2.4934153212883513e-02  -2.2037317994072388e-02  1.0628785639223302e-01  -1.5411067089023069e-02  2.0642545690239988e-02  -7.0503839633671329e-03  -7.7108890671047899e-03  -3.1351660098805507e-04  -8.7813795132398245e-03  -7.5992591794566142e-03  9.7225567945711189e-02  -3.1888631442957012e-02  8.1505512885286638e-02  5.4572720596718763e-02  1.0090547762607734e-01  4.4488451425818858e-02  -2.3614797897504990e-02  -2.1707969282952173e-02  1.1967291502700636e-01  -2.8471653075130953e-02  -3.6409083924687391e-02  -2.5596321699348445e-02  4.3478550876198112e-02  1.0999410389333100e-01  9.3398838551056795e-02  8.9750845348388383e-02  6.9876343347629155e-02  1.1297158160804995e-01  -2.4872187204677595e-02  -2.6789384440114378e-02  -2.2470257805094495e-02  -2.7049873183415826e-02  9.3281019443798407e-02  -2.3220813177835208e-02  -2.9676899142703470e-02  -2.2642285996343849e-02  -2.9450917423799211e-02  -3.3698510746128764e-02  -3.3507475421263033e-02  -2.8345407414210651e-02  -3.1551554814748015e-02  -3.4425768636941551e-02  -2.5434819579784759e-02  -3.1298702954205913e-02  -3.2561265437243581e-02  -2.7904791646688052e-02  -2.8629596795518731e-02  -3.3673397129560974e-02  7.7998915727366835e-02  1.0876917436325430e-01  9.4153714116542650e-02  1.0370731700242440e-01  7.9717523188283720e-02  5.7918125685475316e-02  7.5517744597962871e-02  9.8173920726441613e-02  9.6546135547671844e-02  8.9123445087014252e-02  1.1390591839303406e-01  1.2077309879318142e-01  1.1245033198005025e-01  -7.7214543913544185e-03  -1.2269072929357670e-02  -1.6597959419796398e-02  -5.5084221735889182e-03  -1.4356396366295095e-02  8.1828819708426644e-03  1.2722124441107346e-01  -1.0702941409853322e-02  -2.5278313527702562e-02  6.4073108886257960e-02  -5.8254022221360417e-03  -4.2785147838251504e-03  -1.0506170131770649e-02  -1.2489063684321238e-02  -1.4534101531964808e-02  -1.0200489184429541e-02  -1.5252463959514592e-02  -1.5901289936986383e-02  -1.3752221322630678e-02  -8.4094136597489162e-03  1.7345026905822084e-02  2.3033239712457288e-02  8.4462193174287305e-03  -9.9805729827774897e-03  -2.2720389836183845e-02  1.3404453539588548e-01  8.5399323374304257e-03  4.7674987181001403e-02  1.3154281006627272e-01  -1.5089491109582154e-02  -1.4133546966442140e-02  -2.6429806134496723e-02  -1.9332451934411913e-02  -2.4393308009438810e-02  -1.0114867260017091e-02  -5.4425103673860203e-03  -1.6615446632311601e-02  -2.9815064502187259e-02  -2.2463582733569788e-02  7.9854753103192899e-03  -3.4827890060934737e-02  8.1929224733218411e-02  1.2379930686203907e-02  3.1555936568829754e-02  -1.1238871507877222e-02  -1.9187911254025448e-02  2.7369044286106845e-02  -4.1472795799544951e-02  -3.5514732950424288e-02  -1.9663936235465272e-02  -3.4997175189478549e-02  -1.1215677839049674e-02  -1.3240507416636845e-02  -3.0286110839783838e-02  -2.5735222771531688e-02  -8.8152863978359954e-03  -1.2920901189015642e-02  -1.8034058240482067e-02  6.5780671894140719e-02  1.5061546358349509e-01  1.5166908040592370e-01  1.2391158092581910e-01  1.2077962257421414e-01  -1.4167862125664950e-02  -1.2799079585466380e-02  -1.5259534204236735e-02  -2.2506670450260734e-02  -3.9487945576448524e-02  -5.6174429369298820e-03  -1.2026216327163984e-03  -3.2225794927409177e-03  -1.9201454683546296e-02  6.0359307689678921e-03  -2.7643501874247216e-03  2.4120510135495491e-02  3.1301211259758405e-02  -9.2263694864225601e-03  -1.0821804538493851e-02  -1.1287890782454815e-02  -3.3185786046100604e-02  7.3947194989442591e-02  -1.6480255534442188e-02  7.1797271591670694e-02  -4.5820260736593323e-02  3.2555605471268102e-03  6.2044102655983008e-02  -1.0568297073359085e-02  3.0032302695669838e-02  -2.0367075793581189e-02  -1.6426999425932450e-02  -1.2063224241109808e-02  -2.7085537781161316e-02  -2.2373821421327149e-02  -1.7192718923190915e-02  6.1426173792014961e-02  7.9555774499330489e-02  -3.1368509448454852e-02  1.2029413086722673e-01  7.3539707747688060e-03  -9.8144291019386307e-03  -2.2306801505361303e-02  -4.6063724452724124e-04  1.3987004398512476e-01  -3.1495681932915839e-02  -1.7838218480660394e-03  -8.6908501271492303e-03  -2.6150385295433475e-02  -2.1924780317815067e-02  -2.1495726200423847e-02  -3.0954377370561600e-02  -4.2388151735913419e-02  -1.2237280667767119e-02  -4.2231860480028846e-02  -4.8081283968718878e-02  4.9260445373391228e-02  3.2630106324131561e-02  -3.4518038227364593e-02  -3.4882584605577582e-02  -3.5261724043292836e-02  -3.7280318738190620e-02  1.4648712228971530e-01  1.1658938487876611e-02  -4.8795603316232096e-02  1.7152666808979153e-03  -2.2245257292138148e-02  -3.1792072600900813e-02  -3.4042108701771955e-02  -2.9838268602859229e-02  -2.4916375715807779e-02  -2.8905183848086317e-02  5.6093600238708461e-03  -4.9551891763665527e-02  -2.5544821390541952e-02  2.4774111117203969e-03  7.8875942998974224e-03  4.0739164479362683e-02  1.0191143613710432e-01  -2.2744539934671525e-02  8.8292708732060188e-02  7.4217180654234605e-02  5.2574569577286914e-02  -2.0579651358514289e-02  -1.4642043333253028e-02  -2.1050531872594466e-02  -1.7122979799207107e-02  -1.1823310505511112e-02  -1.121