<?xml version="1.0"?>
<VTKFile type="UnstructuredGrid"  version="0.1"  >
<UnstructuredGrid>
<Piece  NumberOfPoints="1259" NumberOfCells="2420">
<Points>
<DataArray  type="Float64"  NumberOfComponents="3"  format="ascii">0 0 0  0 1 0  1 1 0  1 0 0  1.1 -0.1 0  -0.1 -0.1 0  1.1 1.1 0  -0.1 1.1 0  0.4963936718874101 0.5005951816650757 0  0.6054213333180076 0.7250203423093535 0  0 0.9499999999997918 0  0 0.8999999999995836 0  0 0.8499999999996529 0  0 0.7999999999999998 0  0 0.7500000000003466 0  0 0.7000000000006934 0  0 0.6500000000010401 0  0 0.6000000000013869 0  0 0.5500000000017335 0  0 0.5000000000020587 0  0 0.4500000000018723 0  0 0.4000000000016644 0  0 0.3500000000014564 0  0 0.3000000000012483 0  0 0.2500000000010403 0  0 0.2000000000008322 0  0 0.1500000000006241 0  0 0.100000000000416 0  0 0.05000000000020799 0  0.04999999999989965 0 0  0.09999999999981467 0 0  0.1499999999997036 0 0  0.1999999999995579 0 0  0.2499999999994121 0 0  0.2999999999992664 0 0  0.3499999999991206 0 0  0.3999999999989749 0 0  0.4499999999988292 0 0  0.4999999999986943 0 0  0.5499999999988151 0 0  0.5999999999989468 0 0  0.6499999999990784 0 0  0.69999999999921 0 0  0.7499999999993417 0 0  0.7999999999994734 0 0  0.8499999999996051 0 0  0.8999999999997368 0 0  0.9499999999998684 0 0  1 0.04999999999989965 0  1 0.09999999999981467 0  1 0.1499999999997036 0  1 0.1999999999995579 0  1 0.2499999999994121 0  1 0.2999999999992664 0  1 0.3499999999991206 0  1 0.3999999999989749 0  1 0.4499999999988292 0  1 0.4999999999986943 0  1 0.5499999999988151 0  1 0.5999999999989468 0  1 0.6499999999990784 0  1 0.69999999999921 0  1 0.7499999999993417 0  1 0.7999999999994734 0  1 0.8499999999996051 0  1 0.8999999999997368 0  1 0.9499999999998684 0  0.9499999999997918 1 0  0.8999999999995836 1 0  0.8499999999996529 1 0  0.7999999999999998 1 0  0.7500000000003466 1 0  0.7000000000006934 1 0  0.6500000000010401 1 0  0.6000000000013869 1 0  0.5500000000017335 1 0  0.5000000000020587 1 0  0.4500000000018723 1 0  0.4000000000016644 1 0  0.3500000000014564 1 0  0.3000000000012483 1 0  0.2500000000010403 1 0  0.2000000000008322 1 0  0.1500000000006241 1 0  0.100000000000416 1 0  0.05000000000020799 1 0  -0.1 1.05000000000004 0  -0.1 1.000000000000079 0  -0.1 0.9500000000001624 0  -0.1 0.9000000000003032 0  -0.1 0.850000000000444 0  -0.1 0.8000000000005848 0  -0.1 0.7500000000007256 0  -0.1 0.7000000000008665 0  -0.1 0.6500000000010508 0  -0.1 0.6000000000012352 0  -0.1 0.5500000000014196 0  -0.1 0.500000000001539 0  -0.1 0.4500000000014195 0  -0.1 0.4000000000013 0  -0.1 0.3500000000011588 0  -0.1 0.3000000000010178 0  -0.1 0.2500000000008986 0  -0.1 0.2000000000007579 0  -0.1 0.1500000000006174 0  -0.1 0.1000000000005272 0  -0.1 0.05000000000040083 0  -0.1 2.671196597248127e-13 0  -0.1 -0.0499999999998666 0  -0.0500000000000906 -0.1 0  -1.730560139634463e-13 -0.1 0  0.04999999999975802 -0.1 0  0.09999999999961506 -0.1 0  0.1499999999994613 -0.1 0  0.199999999999302 -0.1 0  0.2499999999991446 -0.1 0  0.2999999999990088 -0.1 0  0.3499999999988296 -0.1 0  0.3999999999986936 -0.1 0  0.4499999999985143 -0.1 0  0.4999999999984002 -0.1 0  0.5499999999985247 -0.1 0  0.5999999999986493 -0.1 0  0.6499999999987955 -0.1 0  0.6999999999989417 -0.1 0  0.7499999999990659 -0.1 0  0.7999999999992116 -0.1 0  0.8499999999993573 -0.1 0  0.8999999999994526 -0.1 0  0.949999999999584 -0.1 0  0.9999999999997226 -0.1 0  1.049999999999861 -0.1 0  1.1 -0.0500000000000906 0  1.1 -1.730560139634463e-13 0  1.1 0.04999999999975802 0  1.1 0.09999999999961506 0  1.1 0.1499999999994613 0  1.1 0.199999999999302 0  1.1 0.2499999999991446 0  1.1 0.2999999999990088 0  1.1 0.3499999999988296 0  1.1 0.3999999999986936 0  1.1 0.4499999999985143 0  1.1 0.4999999999984002 0  1.1 0.5499999999985247 0  1.1 0.5999999999986493 0  1.1 0.6499999999987955 0  1.1 0.6999999999989417 0  1.1 0.7499999999990659 0  1.1 0.7999999999992116 0  1.1 0.8499999999993573 0  1.1 0.8999999999994526 0  1.1 0.949999999999584 0  1.1 0.9999999999997226 0  1.1 1.049999999999861 0  1.05000000000004 1.1 0  1.000000000000079 1.1 0  0.9500000000001624 1.1 0  0.9000000000003032 1.1 0  0.850000000000444 1.1 0  0.8000000000005848 1.1 0  0.7500000000007256 1.1 0  0.7000000000008665 1.1 0  0.6500000000010508 1.1 0  0.6000000000012352 1.1 0  0.5500000000014196 1.1 0  0.500000000001539 1.1 0  0.4500000000014195 1.1 0  0.4000000000013 1.1 0  0.3500000000011588 1.1 0  0.3000000000010178 1.1 0  0.2500000000008986 1.1 0  0.2000000000007579 1.1 0  0.1500000000006174 1.1 0  0.1000000000005272 1.1 0  0.05000000000040083 1.1 0  2.671196597248127e-13 1.1 0  -0.0499999999998666 1.1 0  0.6265985657976785 0.7138342130997255 0  0.6463312294600906 0.7006685254700338 0  0.6645798531464034 0.6857443272392065 0  0.6812522854031482 0.669344742104515 0  0.6963430868273587 0.6515500214946581 0  0.7098697842496037 0.6323428109992 0  0.7213752509281484 0.6117536882505261 0  0.7312673823072485 0.5898372861638589 0  0.7388263544107539 0.5666665775388458 0  0.7439752314095132 0.5424936859467405 0  0.7468484391294811 0.5176112132323341 0  0.7471394562704434 0.4923431985808954 0  0.7449328193188675 0.4669572987968434 0  0.740185432732666 0.441879249435788 0  0.7331130195360792 0.4172924870035591 0  0.7238604077173875 0.3937069226626042 0  0.7124136517168094 0.3713698411062192 0  0.6990314427307528 0.3505508130655824 0  0.6838021253961878 0.3315119937624532 0  0.6670631771096207 0.3143404310700302 0  0.6489375208692654 0.2991882859155875 0  0.6295256399103043 0.2861411285905092 0  0.6093417381123414 0.2749380878768457 0  0.5880984469846476 0.2658119681592556 0  0.5659178815711593 0.2585435485872564 0  0.5429447046352064 0.2532545128267878 0  0.519246547307739 0.2503368706397752 0  0.4950772248125109 0.249739485215499 0  0.4705277397010809 0.2516858187424125 0  0.4459529607462268 0.2563126350805326 0  0.4215905926060369 0.2635458429391882 0  0.3977472289365468 0.2733752375552477 0  0.3747407568808809 0.2856546037722391 0  0.3529458472278945 0.3001476597123611 0  0.3327521664171809 0.3168146429128957 0  0.31440716128805 0.3349920889603362 0  0.2982889170915828 0.3544891810820746 0  0.2843926413311615 0.3748407550210325 0  0.2728525152331322 0.3956873652002512 0  0.2637300491968779 0.4168049424789911 0  0.2570182687382722 0.4381533681226557 0  0.2527943470221749 0.4596681413994103 0  0.2509870010541316 0.4810583598725997 0  0.2507617412662146 0.5016455006311602 0  0.2519151093634283 0.5205450561417362 0  0.2541070914121129 0.5387058909999779 0  0.2573407872435593 0.5585521951303085 0  0.2627604537023825 0.578838566245814 0  0.2701164312357756 0.5991284837674776 0  0.2796736606554788 0.6190086462633015 0  0.2916174272980827 0.6382627670446881 0  0.3059278297231028 0.6568910091331632 0  0.3224524908715324 0.6746549768817934 0  0.3412015321727281 0.6912985390215469 0  0.3620071469662275 0.7064598389520967 0  0.3844968238964579 0.7197113093553039 0  0.4083296167927121 0.7307499697631824 0  0.4332563192849351 0.7393257133736979 0  0.4588532389765861 0.7451429435887135 0  0.484448840342575 0.748207340747056 0  0.5099700752606015 0.7485716614857104 0  0.5350423752846161 0.7462922802528379 0  0.5594162090716635 0.7415789302193471 0  0.5829047338992437 0.7345241629903834 0  0.3032818049977996 0.6092563844160676 0  0.6278838525024019 0.3074645740257619 0  0.6595353562050724 0.6664825178025691 0  0.2883631898522092 0.4198215414344488 0  0.6862297009895553 0.3707049082669358 0  0.5097824591863943 0.2708178549856891 0  0.7104827157967406 0.5745983659057736 0  0.3459818776741203 0.6625595055057238 0  0.4051617205881555 0.7041476929457612 0  0.4755616743628546 0.7202696493630804 0  0.5877211189497605 0.7093170855593225 0  0.4403645063037613 0.2812112807986334 0  0.721078973696796 0.5029675952277546 0  0.7153090399004876 0.4342146398486571 0  0.2665483311163532 0.4781772511789906 0  0.3240121411570918 0.3616014590694916 0  0.3769114996656887 0.3131860035616748 0  0.2751409169348666 0.5613829266496198 0  0.5730724668483956 0.2803399592890397 0  0.5211038658678391 0.7246203877408685 0  0.6972101747749755 0.6144740273185706 0  0.6609574219923456 0.3355843804316168 0  0.627578965740428 0.6865326731675161 0  0.2664546971469417 0.5133806995924476 0  0.2796329906089554 0.4398969670424928 0  0.3019111834653875 0.444766674251631 0  0.3120885810472353 0.4250930361919945 0  0.3238686542202253 0.4519063342084635 0  0.3346839566332027 0.4320804614992279 0  0.3480324399506642 0.4609650018634842 0  0.3543733854086906 0.4328451681320379 0  0.334451939348772 0.4831988746122293 0  0.3598245825890125 0.4940692965280432 0  0.342637697993469 0.5181134717017396 0  0.3693035204850283 0.531498527850475 0  0.3173010134157404 0.5024809468508481 0  0.3238631344256337 0.5383135653701295 0  0.3885588197632945 0.5033214435759349 0  0.3978334405021229 0.5452917338870477 0  0.3734830488439368 0.5788240297549049 0  0.4026955105398889 0.5953347037479481 0  0.3036015327284226 0.5253854125551112 0  0.3059628129775124 0.5549174225619186 0  0.3229725001718696 0.5691408655919155 0  0.431259301527262 0.5606928828553751 0  0.4340133826129432 0.6112737367797819 0  0.409834964435135 0.6267782660682281 0  0.4394842411990205 0.648745545657511 0  0.4660819575908738 0.6264547330141029 0  0.474365325749836 0.65538493246987 0  0.4997674563290996 0.6402892722143654 0  0.4464381527572173 0.6798323060223217 0  0.292394992816128 0.4639671861948135 0  0.3215089442857954 0.4060002831114882 0  0.4986785353594818 0.5921543719180532 0  0.534145478538722 0.6081357999259779 0  0.5314277420679588 0.6541926880138293 0  0.5679413840289351 0.6317194312046291 0  0.5688422560195712 0.5833205956661306 0  0.6017412748744925 0.5986662840483028 0  0.6035463921951466 0.5597913887099002 0  0.6344362454625213 0.5750464713524928 0  0.6428423551726664 0.5378996046780132 0  0.6060440668705991 0.5211780267614756 0  0.6467803104681271 0.500373159855624 0  0.6073468488304894 0.4824057088925735 0  0.6462279494833835 0.4586000357454006 0  0.6078761997501
[...]
<PointData  Scalars="u"> 
<DataArray  type="Float64"  Name="u"  format="ascii">0.0000000000000000e+00  0.0000000000000000e+00  0.0000000000000000e+00  0.0000000000000000e+00  0.0000000000000000e+00  0.0000000000000000e+00  0.0000000000000000e+00  0.0000000000000000e+00  7.2628307949623605e-01  4.0557438566113729e-01  0.0000000000000000e+00  0.0000000000000000e+00  0.0000000000000000e+00  0.0000000000000000e+00  0.0000000000000000e+00  0.0000000000000000e+00  0.0000000000000000e+00  0.0000000000000000e+00  0.0000000000000000e+00  0.0000000000000000e+00  0.0000000000000000e+00  0.0000000000000000e+00  0.0000000000000000e+00  0.0000000000000000e+00  0.0000000000000000e+00  0.0000000000000000e+00  0.0000000000000000e+00  0.0000000000000000e+00  0.0000000000000000e+00  0.0000000000000000e+00  0.0000000000000000e+00  0.0000000000000000e+00  0.0000000000000000e+00  0.0000000000000000e+00  0.0000000000000000e+00  0.0000000000000000e+00  0.0000000000000000e+00  0.0000000000000000e+00  0.0000000000000000e+00  0.0000000000000000e+00  0.0000000000000000e+00  0.0000000000000000e+00  0.0000000000000000e+00  0.0000000000000000e+00  0.0000000000000000e+00  0.0000000000000000e+00  0.0000000000000000e+00  0.0000000000000000e+00  0.0000000000000000e+00  0.0000000000000000e+00  0.0000000000000000e+00  0.0000000000000000e+00  0.0000000000000000e+00  0.0000000000000000e+00  0.0000000000000000e+00  0.0000000000000000e+00  0.0000000000000000e+00  0.0000000000000000e+00  0.0000000000000000e+00  0.0000000000000000e+00  0.0000000000000000e+00  0.0000000000000000e+00  0.0000000000000000e+00  0.0000000000000000e+00  0.0000000000000000e+00  0.0000000000000000e+00  0.0000000000000000e+00  0.0000000000000000e+00  0.0000000000000000e+00  0.0000000000000000e+00  0.0000000000000000e+00  0.0000000000000000e+00  0.0000000000000000e+00  0.0000000000000000e+00  0.0000000000000000e+00  0.0000000000000000e+00  0.0000000000000000e+00  0.0000000000000000e+00  0.0000000000000000e+00  0.0000000000000000e+00  0.0000000000000000e+00  0.0000000000000000e+00  0.0000000000000000e+00  0.0000000000000000e+00  0.0000000000000000e+00  0.0000000000000000e+00  0.0000000000000000e+00  0.0000000000000000e+00  0.0000000000000000e+00  0.0000000000000000e+00  0.0000000000000000e+00  0.0000000000000000e+00  0.0000000000000000e+00  0.0000000000000000e+00  0.0000000000000000e+00  0.0000000000000000e+00  0.0000000000000000e+00  0.0000000000000000e+00  0.0000000000000000e+00  0.0000000000000000e+00  0.0000000000000000e+00  0.0000000000000000e+00  0.0000000000000000e+00  0.0000000000000000e+00  0.0000000000000000e+00  0.0000000000000000e+00  0.0000000000000000e+00  0.0000000000000000e+00  0.0000000000000000e+00  0.0000000000000000e+00  0.0000000000000000e+00  0.0000000000000000e+00  0.0000000000000000e+00  0.0000000000000000e+00  0.0000000000000000e+00  0.0000000000000000e+00  0.0000000000000000e+00  0.0000000000000000e+00  0.0000000000000000e+00  0.0000000000000000e+00  0.0000000000000000e+00  0.0000000000000000e+00  0.0000000000000000e+00  0.0000000000000000e+00  0.0000000000000000e+00  0.0000000000000000e+00  0.0000000000000000e+00  0.0000000000000000e+00  0.0000000000000000e+00  0.0000000000000000e+00  0.0000000000000000e+00  0.0000000000000000e+00  0.0000000000000000e+00  0.0000000000000000e+00  0.0000000000000000e+00  0.0000000000000000e+00  0.0000000000000000e+00  0.0000000000000000e+00  0.0000000000000000e+00  0.0000000000000000e+00  0.0000000000000000e+00  0.0000000000000000e+00  0.0000000000000000e+00  0.0000000000000000e+00  0.0000000000000000e+00  0.0000000000000000e+00  0.0000000000000000e+00  0.0000000000000000e+00  0.0000000000000000e+00  0.0000000000000000e+00  0.0000000000000000e+00  0.0000000000000000e+00  0.0000000000000000e+00  0.0000000000000000e+00  0.0000000000000000e+00  0.0000000000000000e+00  0.0000000000000000e+00  0.0000000000000000e+00  0.0000000000000000e+00  0.0000000000000000e+00  0.0000000000000000e+00  0.0000000000000000e+00  0.0000000000000000e+00  0.0000000000000000e+00  0.0000000000000000e+00  0.0000000000000000e+00  0.0000000000000000e+00  0.0000000000000000e+00  0.0000000000000000e+00  0.0000000000000000e+00  0.0000000000000000e+00  0.0000000000000000e+00  0.0000000000000000e+00  0.0000000000000000e+00  0.0000000000000000e+00  0.0000000000000000e+00  0.0000000000000000e+00  0.0000000000000000e+00  4.0617910384897710e-01  4.0654092011343201e-01  4.0617210787915514e-01  4.0670562365186863e-01  4.0671274967005866e-01  4.0656129923742229e-01  4.0626976662298364e-01  4.0558160325806164e-01  4.0590712004371166e-01  4.0613416909907102e-01  4.0642159944728867e-01  4.0675764534509301e-01  4.0698740230344915e-01  4.0777519844837734e-01  4.0792753588966413e-01  4.0752387722124189e-01  4.0719863032999454e-01  4.0646082012177676e-01  4.0590669569479143e-01  4.0532752309953413e-01  4.0491217206373903e-01  4.0489195541936651e-01  4.0428795382583688e-01  4.0402784232271716e-01  4.0358422825609724e-01  4.0315410965320270e-01  4.0302424537735559e-01  4.0316439206609495e-01  4.0390374175005334e-01  4.0514541472622811e-01  4.0647515160780484e-01  4.0781717912981663e-01  4.0905641991713687e-01  4.0972253680313847e-01  4.0965274640172178e-01  4.0948217423946820e-01  4.0859846866230487e-01  4.0708613929985105e-01  4.0538250401826426e-01  4.0380177641750187e-01  4.0264985174456197e-01  4.0265877767975378e-01  4.0386022779243441e-01  4.0468383189476059e-01  4.0492081184231332e-01  4.0570997664133646e-01  4.0458407339396091e-01  4.0409658011076205e-01  4.0364509437361973e-01  4.0413168350724088e-01  4.0539898320340217e-01  4.0655770765385640e-01  4.0742648069178422e-01  4.0822146308814317e-01  4.0844316575280432e-01  4.0808441684883473e-01  4.0725299437747658e-01  4.0631747999330520e-01  4.0556971415244447e-01  4.0496001068027804e-01  4.0471733553672101e-01  4.0477476013412994e-01  4.0497547222666297e-01  4.0529961576231477e-01  4.7003882396233643e-01  4.5514036676947417e-01  4.5367831928564617e-01  4.6678223476507796e-01  4.6430354357318265e-01  4.5881536802784439e-01  4.7026842525043122e-01  4.7209145888137544e-01  4.6802364054217249e-01  4.7518659312601569e-01  4.6250139413697361e-01  4.6506246326711337e-01  4.7472056070874113e-01  4.6591055734040354e-01  4.4601543271583582e-01  4.7256016964457076e-01  4.7256725634283853e-01  4.4960715249557909e-01  4.5399775266320552e-01  4.6545279599879025e-01  4.5929136576462393e-01  4.5718726958784744e-01  4.6522282408074950e-01  4.4692933403923241e-01  4.6161774649113962e-01  5.1110120254328839e-01  5.1812608050118192e-01  5.5609607978771103e-01  5.6321804375323858e-01  6.0047722666405556e-01  5.9494767366527834e-01  5.8480217886714225e-01  6.2574668973270708e-01  5.9826825683811136e-01  6.3433626816690791e-01  5.5589785617907306e-01  5.6025329799383483e-01  6.6301527120452564e-01  6.6287656007892104e-01  6.1321049477586587e-01  6.3192279262596251e-01  5.2604010489257191e-01  5.1896598259362614e-01  5.4179108754739358e-01  6.8381189678689369e-01  6.4102320629807630e-01  6.0166011306063183e-01  5.9385136389009552e-01  6.3854666667549220e-01  5.9784196933925082e-01  6.2526606823870934e-01  5.4483509779400152e-01  5.0025014606952733e-01  5.1934365518569348e-01  6.8273879574538243e-01  6.6016670321399584e-01  5.9880171498324064e-01  6.1360875340342924e-01  6.6593177564757045e-01  6.2260813609551890e-01  6.5221854928411926e-01  6.0354687816333896e-01  6.1329107267131822e-01  6.6568475933281612e-01  6.1503442582324919e-01  6.6522548686959759e-01  6.0745847183680290e-01  6.4982022204059564e-01  6.0641280045537038e-01  6.1393544769213959e-01  6.6927378169233431e-01  6.3237954571143340e-01  6.6906849656025835e-01  6.1661788840302034e-01  6.4551373354820085e-01  5.8464620320199145e-01  5.9317645624039850e-01  6.0468715150539265e-01  6.5048295002880374e-01  5.6929953994473148e-01  6.1729898110165538e-01  6.5118041344103095e-01  6.1402787990239416e-01  6.4059114885075719e-01  5.5078218531081569e-01  5.6524454147907588e-01  5.5361380577488650e-01  5.4414968415202825e-01  5.5966798492186842e-01  5.6013958858547941e-01  5.5338668275864877e-01  5.4019421607541107e-01  5.5717791928647553e-01  5.4193405723047194e-01  5.4857251918720107e-01  5.8894052704420652e-01  5.5272443864139109e-01  5.4930928560667358e-01  5.1290233777775662e-01  6.9214048181461019e-01  5.0737458953583414e-01  5.6241503774706880e-01  5.3014584286941135e-01  5.0692280124368760e-01  5.3798414869964828e-01  4.9596040783136236e-01  7.0098485631726293e-01  5.6775462936643473e-01  5.2569879335114411e-01  5.7857207583797388e-01  5.3360301650279784e-01  5.3329649227512688e-01  5.2106593231103304e-01  5.1211739121463884e-01  4.8909242409842246e-01  5.5322045481578574e-01  7.0170553876071273e-01  5.6552511458573851e-01  5.3538882759715178e-01  5.2125559774277863e-01  5.8566616979904562e-01  5.3184102910048747e-01  4.9604534281854740e-01  5.8164330174633649e-01  5.4807230077515445e-01  5.6018896884338454e-01  5.2989695361399858e-01  5.2688658665856947e-01  6.9794217182287377e-01  5.8758713060595114e-01  5.0317878554309770e-01  4.7771750023987752e-01  5.3237771755704921e-01  4.9084341198299047e-01  4.5360563131193682e-01  4.6994950289409149e-01  4.7194291262613647e-01  5.2899523595718512e-01  5.6991340445775129e-01  6.7641010180692096e-01  7.0696129112684758e-01  4.7009691512248031e-01  4.6733189610131332e-01  5.1468161983594984e-01  4.7016237837007108e-01  4.7104674324983453e-01  4.7029641314697157e-01  4.6847198450995842e-01  4.6870594594284892e-01  4.6623406915659876e-01  6.8837918506735907e-01  4.6584403581782929e-01  4.6828910732007528e-01  4.6609953183364500e-01  4.6418360745396142e-01  4.6555703745773014e-01  4.6575549152366902e-01  4.6400499136827028e-01  5.1442247770698346e-01  4.6254964845450569e-01  4.6741295562494667e-01  5.1335878005215019e-01  4.5883128378323368e-01  4.6125009749568413e-01  5.1163169742306791e-01  4.5370557975931242e-01  4.5939610169257539e-01  5.1043241079831703e-01  4.5755567422708737e-01  5.1249921011839839e-01  5.4867478070416620e-01  5.1577704479326614e-01  4.5669031595206377e-01  5.2085941297316030e-01  6.8978011884620383e-01  5.4340137754288431e-01  4.5820077971951628e-01  4.9912153475426346e-01  4.5377108239959507e-01  6.9319808999532817e-01  4.5288249970963113e-01  4.9877031210412154e-01  4.6903596983062729e-01  4.6460725920001084e-01  4.8940544189656587e-01  4.8839992760200168e-01  5.2149048721151225e-01  4.5828776467808496e-01  4.6994197185453374e-01  6.2560316533082361e-01  6.9256737057291862e-01  4.9271985991845790e-01  4.5207034995262629e-01  5.2107228135967565e-01  6.9448366798107430e-01  5.1037820715017579e-01  5.1344265293410307e-01  4.5338527131275730e-01  5.0984904386532914e-01  5.4949672722316645e-01  5.1980603782890211e-01  7.1429250065961847e-01  4.9953014457533079e-01  5.6822153585158808e-01  7.1658841246621696e-01  7.1852285870217336e-01  4.4718094782614937e-01  5.4168134185044725e-01  5.7252879647556243e-01  5.0759092475110323e-01  5.0231236271084190e-01  5.0982690644058182e-01  4.9961433904234492e-01  5.1493698116845998e-01  4.6272520457557204e-01  5.0321241526792981e-01  5.6015356466029076e-01  5.0351996932550391e-01  4.4835209537866905e-01  5.1722674151714942e-01  5.6953238351580071e-01  4.8697623893856451e-01  5.1197418464791056e-01  4.9431009997401631e-01  4.9655748980803144e-01  5.0869884052136893e-01  6.3751282270356691e-01  5.6414775362098213e-01  5.5830739601342716e-01  6.9083523868629548e-01  7.1632376090868322e-01  4.3686939931946467e-01  5.5560575890433872e-01  5.8967281478419875e-01  5.8380516909104274e-01  4.9347943968327951e-01  5.3475905829173898e-01  5.2363457314379558e-01  5.0924230234189671e-01  5.9919364836866773e-01  5.8547295872761118e-01  5.9335107076052696e-01  4.9083884771062086e-01  5.7580188931838794e-01  5.4702877962617757e-01  5.0820426453324807e-01  4.3003990825315902e-01  5.1031312436895893e-01  5.6811892673241038e-01  5.7516680801586184e-01  7.1752230232559211e-01  5.0995339208581913e-01  7.1741463234994507e-01  5.8010732589744862e-01  4.8488592753133264e-01  5.0523435957322604e-01  5.5783746044561822e-01  5.1313861816108763e-01  5.9443635785682414e-01  5.7617787268137122e-01  4.3937296919801561e-01  5.0351989037466993e-01  5.6721637149118875e-01  5.1616715715978823e-01  5.7331253040853858e-01  3.5909580452052342e-01  3.5965196870298993e-01  3.5229583677272858e-01  3.4368914076338514e-01  3.4277237501041374e-01  3.6150045837057093e-01  3.4854806465115612e-01  3.4264883078722358e-01  3.5281488932126970e-01  3.5020608456003333e-01  3.6009971314719835e-01  3.5512541530635111e-01  3.4482752790642474e-01  1.5015546213915907e-02  3.4616439225411899e-01  1.7131184466995776e-02  3.4723397886645380e-01  1.3423177045332756e-02  3.5302477299721141e-01  1.7660868639262899e-02  1.6081053197728404e-02  3.5428746814002865e-01  3.6233761020198851e-01  2.2851015970969092e-02  3.3909893276709097e-01  3.4647622631963776e-01  3.5409049428370221e-01  2.3014568244218596e-02  2.2354648660034039e-02  3.4313822764744517e-01  3.1295204648081498e-02  3.9550461552825461e-02  3.6140697848996928e-02  3.3690244144499415e-01  4.2386758857876482e-02  3.4808518826248563e-01  4.1958225794341532e-02  4.0808798666672690e-02  4.4665225694445844e-02  5.0154392499399923e-02  5.1806955954111854e-02  3.3519472796463223e-01  4.3065693924386819e-02  4.2876534505940547e-02  4.6128588706569294e-02  4.9901176583522805e-02  6.2009796442929711e-03  4.1730532751941551e-03  7.2696416695498076e-02  5.9648611722230137e-03  6.7061961092189544e-03  6.6790860339558750e-02  5.4006162119955145e-03  3.9240302964240418e-03  3.1745911631164520e-01  2.7098158839334063e-01  2.7576642579283378e-01  2.5727976100663225e-01  2.1678003275679752e-01  2.0422677037286852e-01  2.3678494427041963e-01  1.8306014398420470e-01  2.1150523843837596e-01  1.5337600155986625e-01  1.7914563678110820e-01  1.6528472900275101e-01  2.4412492511646980e-01  2.0143135332145784e-01  1.4726326088873881e-01  1.6537920442569168e-01  1.1744257496839472e-01  1.3189400950412589e-01  1.8771348491632134e-01  1.4324668775431829e-01  1.0183294820498821e-01  1.1042304839815824e-01  1.4862405978248916e-01  1.1527091416385229e-01  1.6065908944603610e-01  1.1782783599742430e-01  1.5526564430034082e-01  1.1490783558383237e-01  1.4954606157831482e-01  8.0633624625868761e-02  2.0349716200650658e-01  1.0987133991328267e-01  1.4122547810114436e-01  1.8747601283507140e-01  1.7667529710569285e-01  1.2959322646935476e-01  1.6292917817384150e-01  1.1592554597784407e-01  1.4710891529295819e-01  1.9842091159712022e-01  1.8001163766518818e-01  8.3638985508521113e-02  1.0267061152818294e-01  2.2884147570653743e-01  2.3756235938501455e-01  2.3281468991799742e-01  2.1403002758274484e-01  1.6027293297684370e-01  1.9983943167615237e-01  1.3902134075360070e-01  1.6658714726031157e-01  2.2020477522468129e-01  1.8903061269102414e-01  1.4162906914102993e-01  1.6031395118244476e-01  2.1451334543885520e-01  1.7616970694802453e-01  1.2905996471354730e-01  1.4417645261476453e-01  1.9569704929811188e-01  1.5477436784574083e-01  1.1178719974128272e-01  1.1868671504048180e-01  1.6207208515034932e-01  1.2106951897177859e-01  1.6054892538308652e-01  1.1785971792035629e-01  1.5388292120041613e-01  1.0951730596866208e-01  1.4047732539730332e-01  8.6176849631479410e-02  9.4042780142144261e-02  1.1933409030767800e-01  1.7242177729476219e-01  1.4729761372227773e-01  2.0972995491244023e-01  2.0991909260707992e-01  1.7365778505463170e-01  8.1450341709635235e-02  1.2055164427046179e-01  1.3971462882493602e-01  2.0346026871604131e-01  1.5766584412933982e-01  2.2050853248952640e-01  1.7395695809754169e-01  2.2888478460639070e-01  1.9114940460999330e-01  1.3353090374049459e-01  1.4320596793177226e-01  2.0365915181025551e-01  1.5300157147642279e-01  2.0171207476773442e-01  1.5655671245355343e-01  2.0923018622918824e-01  1.5455590190875909e-01  2.0460682458595436e-01  1.5156874019594524e-01  1.8699653908006680e-01  1.4507591260684469e-01  1.7654977813792580e-01  1.3305660614297501e-01  1.6285392903531398e-01  1.1778010012807816e-01  1.4311838276059971e-01  9.9960455946304858e-02  1.1678281063741427e-01  1.0526531703366457e-01  1.6770331455131182e-01  1.3734381560663048e-01  7.9461715002334954e-02  6.4001932858463104e-02  1.9727382878087335e-01  1.5248794384344824e-01  1.0046346437537709e-01  2.1722245252630135e-01  2.1266083396231189e-01  1.6241295811981268e-01  2.1133202922151714e-01  1.7301439604980812e-01  2.1188519335559330e-01  1.6456038302199003e-01  2.0328562940962538e-01  1.5353463223037878e-01  1.9877871077630241e-01  2.5816431381603633e-01  2.5075995012737751e-01  7.0833696964446718e-02  7.3477522112492033e-02  2.5077479547414772e-01  1.3732715734844511e-01  1.7355473896578896e-01  1.1880700394649403e-01  2.5894913727015917e-01  2.2023536193365797e-01  1.1428007346588284e-01  4.8031640304260118e-02  5.3100764651662843e-02  2.5004925959385266e-01  2.3044362791113929e-01  2.3046598769037424e-01  2.1370743599329520e-01  1.5267503330274493e-01  1.8307271376151810e-01  1.3030432695329477e-01  1.5713488255369651e-01  2.1001898073703379e-01  1.8234429045445566e-01  1.3459731350405230e-01  1.5555229088554956e-01  1.1174613370604508e-01  1.2899506208600339e-01  1.7496210340129095e-01  1.4503109157401406e-01  1.9144757780196486e-01  1.5781593860851409e-01  1.1646142461874213e-01  1.2638059893917505e-01  8.9627263483631023e-02  1.6898268867925237e-01  1.3343375022368384e-01  1.7559706697993682e-01  1.3735638149448892e-01  1.7931253803188676e-01  1.3744354078876464e-01  1.7947795069521064e-01  1.0306628725421074e-01  8.0829017258404384e-02  5.8672123637881005e-02  2.2323892222400216e-01  2.3500623724629002e-01  2.2574332387793986e-01  2.4144971026338383e-01  1.3359251503762648e-01  1.8378276181187644e-01  9.6632704069769995e-02  2.2612084420093137e-01  2.2458229229491891e-01  1.7786350769247908e-01  2.6738954390400993e-01  6.5143606790273270e-02  3.8996896496053035e-02  3.3609106032555021e-02  4.1524745825763279e-02  8.9033951259560026e-02  7.2704197380919947e-02  1.1157945667987818e-01  3.5743423081620589e-02  5.0830113730447796e-02  1.6644764442330306e-01  5.9400897227690728e-02  7.1712936499728418e-04  4.3973800936276383e-04  2.0751440520379474e-01  1.6475717951024044e-01  2.7907692856688732e-01  2.8432976526970177e-01  5.3095294228917893e-02  2.8503020266983436e-01  3.0469042046642553e-01  2.7258595560225019e-01  2.5747849589220650e-01  9.4893924834512505e-02  8.4469867326750978e-02  2.4888823296186659e-02  2.5651507506411003e-01  3.4679843308412783e-01  2.6404021711885839e-01  2.6783791255100881e-01  2.8060163096098922e-01  2.6494631400262669e-01  2.5854282774518600e-01  2.7261470420727513e-01  3.0702795158685747e-01  2.8273441126207882e-01  2.9536742300385288e-01  1.9002287465280814e-02  3.2062380447424427e-01  1.0976432296367558e-01  2.9969592762814645e-01  8.8855636491483911e-02  3.3809620068015739e-01  2.9282735727073345e-01  2.9246442801130268e-01  2.8783729139862491e-01  3.4103363639841605e-01  2.7645940938357322e-01  2.8986198608531505e-01  2.5765579629401353e-01  8.7736965831881453e-02  5.9700469442683916e-02  6.5751854807560420e-02  3.9893481502026415e-02  3.0616064318834740e-01  2.7250691460621895e-01  3.2546584754302327e-01  2.7526155385461676e-01  2.5047093445118551e-01  2.6428619951518956e-01  2.6346108058939116e-01  2.9263490376589546e-01  7.8871604403403253e-02  3.3369681252763278e-01  2.4386224242151050e-01  1.2281093600004757e-01  2.8263139582057517e-01  2.5720991943164029e-01  2.6699824589685189e-01  2.2899691471718964e-01  2.9419410141841706e-01  3.4415646538645689e-01  2.9409226398624783e-01  2.9897174697033124e-01  2.8973681650693900e-01  3.4412284945992377e-01  3.4455292248581526e-01  3.0050008527867900e-01  3.0340755392572455e-01  2.9252346443971189e-01  1.2737557708706132e-01  1.1882425754977037e-01  3.4570919269819317e-01  2.9823403836896256e-01  2.9491637482458821e-01  3.3083892183849101e-01  2.8198580770456755e-01  3.4543997755858091e-01  9.9312901603320611e-02  3.3901996504092069e-01  3.1470717861044895e-01  8