<?xml version="1.0"?>
<VTKFile type="UnstructuredGrid"  version="0.1"  >
<UnstructuredGrid>
<Piece  NumberOfPoints="1259" NumberOfCells="2420">
<Points>
<DataArray  type="Float64"  NumberOfComponents="3"  format="ascii">0 0 0  0 1 0  1 1 0  1 0 0  1.1 -0.1 0  -0.1 -0.1 0  1.1 1.1 0  -0.1 1.1 0  0.4972871447189275 0.4995180476053284 0  0.6092296256415728 0.7303803678165832 0  0 0.9499999999997918 0  0 0.8999999999995836 0  0 0.8499999999996529 0  0 0.7999999999999998 0  0 0.7500000000003466 0  0 0.7000000000006934 0  0 0.6500000000010401 0  0 0.6000000000013869 0  0 0.5500000000017335 0  0 0.5000000000020587 0  0 0.4500000000018723 0  0 0.4000000000016644 0  0 0.3500000000014564 0  0 0.3000000000012483 0  0 0.2500000000010403 0  0 0.2000000000008322 0  0 0.1500000000006241 0  0 0.100000000000416 0  0 0.05000000000020799 0  0.04999999999989965 0 0  0.09999999999981467 0 0  0.1499999999997036 0 0  0.1999999999995579 0 0  0.2499999999994121 0 0  0.2999999999992664 0 0  0.3499999999991206 0 0  0.3999999999989749 0 0  0.4499999999988292 0 0  0.4999999999986943 0 0  0.5499999999988151 0 0  0.5999999999989468 0 0  0.6499999999990784 0 0  0.69999999999921 0 0  0.7499999999993417 0 0  0.7999999999994734 0 0  0.8499999999996051 0 0  0.8999999999997368 0 0  0.9499999999998684 0 0  1 0.04999999999989965 0  1 0.09999999999981467 0  1 0.1499999999997036 0  1 0.1999999999995579 0  1 0.2499999999994121 0  1 0.2999999999992664 0  1 0.3499999999991206 0  1 0.3999999999989749 0  1 0.4499999999988292 0  1 0.4999999999986943 0  1 0.5499999999988151 0  1 0.5999999999989468 0  1 0.6499999999990784 0  1 0.69999999999921 0  1 0.7499999999993417 0  1 0.7999999999994734 0  1 0.8499999999996051 0  1 0.8999999999997368 0  1 0.9499999999998684 0  0.9499999999997918 1 0  0.8999999999995836 1 0  0.8499999999996529 1 0  0.7999999999999998 1 0  0.7500000000003466 1 0  0.7000000000006934 1 0  0.6500000000010401 1 0  0.6000000000013869 1 0  0.5500000000017335 1 0  0.5000000000020587 1 0  0.4500000000018723 1 0  0.4000000000016644 1 0  0.3500000000014564 1 0  0.3000000000012483 1 0  0.2500000000010403 1 0  0.2000000000008322 1 0  0.1500000000006241 1 0  0.100000000000416 1 0  0.05000000000020799 1 0  -0.1 1.05000000000004 0  -0.1 1.000000000000079 0  -0.1 0.9500000000001624 0  -0.1 0.9000000000003032 0  -0.1 0.850000000000444 0  -0.1 0.8000000000005848 0  -0.1 0.7500000000007256 0  -0.1 0.7000000000008665 0  -0.1 0.6500000000010508 0  -0.1 0.6000000000012352 0  -0.1 0.5500000000014196 0  -0.1 0.500000000001539 0  -0.1 0.4500000000014195 0  -0.1 0.4000000000013 0  -0.1 0.3500000000011588 0  -0.1 0.3000000000010178 0  -0.1 0.2500000000008986 0  -0.1 0.2000000000007579 0  -0.1 0.1500000000006174 0  -0.1 0.1000000000005272 0  -0.1 0.05000000000040083 0  -0.1 2.671196597248127e-13 0  -0.1 -0.0499999999998666 0  -0.0500000000000906 -0.1 0  -1.730560139634463e-13 -0.1 0  0.04999999999975802 -0.1 0  0.09999999999961506 -0.1 0  0.1499999999994613 -0.1 0  0.199999999999302 -0.1 0  0.2499999999991446 -0.1 0  0.2999999999990088 -0.1 0  0.3499999999988296 -0.1 0  0.3999999999986936 -0.1 0  0.4499999999985143 -0.1 0  0.4999999999984002 -0.1 0  0.5499999999985247 -0.1 0  0.5999999999986493 -0.1 0  0.6499999999987955 -0.1 0  0.6999999999989417 -0.1 0  0.7499999999990659 -0.1 0  0.7999999999992116 -0.1 0  0.8499999999993573 -0.1 0  0.8999999999994526 -0.1 0  0.949999999999584 -0.1 0  0.9999999999997226 -0.1 0  1.049999999999861 -0.1 0  1.1 -0.0500000000000906 0  1.1 -1.730560139634463e-13 0  1.1 0.04999999999975802 0  1.1 0.09999999999961506 0  1.1 0.1499999999994613 0  1.1 0.199999999999302 0  1.1 0.2499999999991446 0  1.1 0.2999999999990088 0  1.1 0.3499999999988296 0  1.1 0.3999999999986936 0  1.1 0.4499999999985143 0  1.1 0.4999999999984002 0  1.1 0.5499999999985247 0  1.1 0.5999999999986493 0  1.1 0.6499999999987955 0  1.1 0.6999999999989417 0  1.1 0.7499999999990659 0  1.1 0.7999999999992116 0  1.1 0.8499999999993573 0  1.1 0.8999999999994526 0  1.1 0.949999999999584 0  1.1 0.9999999999997226 0  1.1 1.049999999999861 0  1.05000000000004 1.1 0  1.000000000000079 1.1 0  0.9500000000001624 1.1 0  0.9000000000003032 1.1 0  0.850000000000444 1.1 0  0.8000000000005848 1.1 0  0.7500000000007256 1.1 0  0.7000000000008665 1.1 0  0.6500000000010508 1.1 0  0.6000000000012352 1.1 0  0.5500000000014196 1.1 0  0.500000000001539 1.1 0  0.4500000000014195 1.1 0  0.4000000000013 1.1 0  0.3500000000011588 1.1 0  0.3000000000010178 1.1 0  0.2500000000008986 1.1 0  0.2000000000007579 1.1 0  0.1500000000006174 1.1 0  0.1000000000005272 1.1 0  0.05000000000040083 1.1 0  2.671196597248127e-13 1.1 0  -0.0499999999998666 1.1 0  0.631232558653038 0.7196022389921507 0  0.6516600751257672 0.7064965086376577 0  0.670253893663654 0.6910577498836273 0  0.6867138695241238 0.6737091476241387 0  0.7008939844090198 0.654634615603521 0  0.7128145055987483 0.6341074140104835 0  0.7225061353442892 0.6124546090819843 0  0.7298583355749509 0.5896900158458255 0  0.7350463963237318 0.5660844061615194 0  0.7382129371842079 0.5418719626573465 0  0.7393930676653456 0.5172523618892473 0  0.7386491326395233 0.4924227812576308 0  0.7360467088791953 0.4675656956154233 0  0.7315527036584016 0.44293478714566 0  0.7252764738395863 0.4186662550963477 0  0.7172756701841777 0.3950689901067361 0  0.7074885281277309 0.3723358802654272 0  0.6959934520456768 0.3506714874110122 0  0.6827897429695614 0.3302918282909608 0  0.6678519340074798 0.3114400820507474 0  0.6512371938891924 0.294314735177549 0  0.632907139871296 0.2791683117405342 0  0.6129389422521464 0.2664004974597514 0  0.5915060266972454 0.2560489644882167 0  0.568701019052275 0.2483711062649726 0  0.5449041194391936 0.2436485607835771 0  0.5204748000194014 0.2418889424362179 0  0.4958242892672133 0.2430822584762301 0  0.4711437861187664 0.2470786339180508 0  0.4467593560664053 0.2536920175764179 0  0.4228974335116337 0.2627626251388288 0  0.3997665027779986 0.2741035356668599 0  0.3776034396856799 0.2875201066682305 0  0.3566775394482857 0.3027715444135562 0  0.3371122084898592 0.3196434098309518 0  0.3193538500955401 0.3378592111315004 0  0.303343674488638 0.357000545427974 0  0.2891333990249796 0.3767868649512792 0  0.2767662373880772 0.3969249523229945 0  0.2662432517157064 0.4172483968326481 0  0.2576031534823829 0.4377912822281549 0  0.2510452091702833 0.4586046383186821 0  0.2469553395789403 0.4796309247780821 0  0.2454835230488157 0.5004591675298872 0  0.2462047569417728 0.5200014572392452 0  0.248704431820771 0.5388804101585812 0  0.2534221577480542 0.5588059905133593 0  0.2606114671155677 0.578709994007612 0  0.2701346205421502 0.5980510614768322 0  0.2816932602410576 0.6167375404977086 0  0.2950585258620911 0.6349090107822124 0  0.3101852220919324 0.6526192795231754 0  0.3270437037332916 0.6696638296791608 0  0.3457286826431287 0.6858171943749561 0  0.3661502027163301 0.7007452626978773 0  0.3880356039483621 0.7141254810290915 0  0.4111689464736854 0.7256806746894954 0  0.4353879481574648 0.735174163734958 0  0.4603896364401097 0.7423120394077256 0  0.4857340103863175 0.7467865432233238 0  0.5112871333215226 0.7485925347799738 0  0.5366529233362228 0.7478252779586069 0  0.5615756348090958 0.7445395384349178 0  0.5858219675816044 0.7387630492963968 0  0.3046420724384121 0.6064603743590342 0  0.6296713611409755 0.3014074147663777 0  0.6642547730684794 0.6711049301654259 0  0.2904426233176242 0.420766724945182 0  0.6824475007225008 0.3699512294131964 0  0.5114739072359979 0.2637000235544301 0  0.7084167883826944 0.5755408626118379 0  0.3497361937732877 0.6579117936262816 0  0.4084498998954731 0.6995990930985062 0  0.4778913916970945 0.7186205889262485 0  0.5913406476634891 0.713445077571952 0  0.4422552201314289 0.2790079332433152 0  0.7143073390463948 0.5033662517627044 0  0.7080421345873695 0.434815471687059 0  0.2636248883723805 0.4775063896324505 0  0.3282461199827387 0.3637022114080053 0  0.380346719408558 0.3144821707810396 0  0.2723673997687728 0.5607186462601186 0  0.5757142800834567 0.2713858666566801 0  0.5233894281663893 0.7253679452141727 0  0.6987102873413334 0.6165310374920617 0  0.6602459875979203 0.3326204747910358 0  0.6321353725122312 0.6915240206505927 0  0.2619432600320073 0.5127547951706671 0  0.2802014558230847 0.4402670554409354 0  0.3024961609351479 0.4453188665141647 0  0.313892683401174 0.4260563110574136 0  0.3245194399783762 0.4523164048006209 0  0.3363284612812327 0.4327841428361218 0  0.3488612155285705 0.4610204968501256 0  0.3561683076771703 0.4332933575107731 0  0.3343179166640741 0.4829304305664239 0  0.3602319217378937 0.4933967712745568 0  0.3423283702100515 0.5170518111888022 0  0.369831421316057 0.5300224547585352 0  0.3160845614675361 0.5019072143441073 0  0.3229252322409603 0.5369498699001103 0  0.3894718318411041 0.5022969771542084 0  0.3990250072594269 0.5435626459086972 0  0.3748211615307395 0.5763329776531355 0  0.4047164864264695 0.5927971035618171 0  0.3015391615360987 0.5244803022608056 0  0.3045339214532664 0.5534464175286509 0  0.3227481627916979 0.5670651748927773 0  0.4329395885204567 0.5590198191550929 0  0.4364430159879042 0.6090939798886651 0  0.4124693668062082 0.6238513392329987 0  0.4424045807571204 0.646294674592652 0  0.4687258205403497 0.6250232321508957 0  0.4772542359596632 0.6541074849237013 0  0.5025329638652161 0.6399846005831521 0  0.4494524845688521 0.6772396721519702 0  0.2915816831570081 0.4640684549902033 0  0.3242386488681395 0.4072840335081863 0  0.5007340290213087 0.5916883545345325 0  0.5363201415613281 0.6088038588139572 0  0.5343578919115082 0.6551802990100732 0  0.5705572201226097 0.6337792530094142 0  0.570089670653576 0.584547065538311 0  0.6031408203197087 0.6009168848896201 0  0.6034239590564848 0.5611778076001022 0  0.6342945448081039 0.5771233227989313 0  0.6407820603170872 0.5391423192699578 0  0.6046223743760361 0.5216743614142072 0  0.6433198477505548 0.5007859048553566 0  0.6051283461191136 0.481922538163187 0  0.6421943570746945 0.458040678641948 0  0.605475994
[...]
<PointData  Scalars="v"> 
<DataArray  type="Float64"  Name="v"  format="ascii">0.0000000000000000e+00  0.0000000000000000e+00  0.0000000000000000e+00  0.0000000000000000e+00  0.0000000000000000e+00  0.0000000000000000e+00  0.0000000000000000e+00  0.0000000000000000e+00  6.2635815193683294e-05  5.8460415439112527e-05  0.0000000000000000e+00  0.0000000000000000e+00  0.0000000000000000e+00  0.0000000000000000e+00  0.0000000000000000e+00  0.0000000000000000e+00  0.0000000000000000e+00  0.0000000000000000e+00  0.0000000000000000e+00  0.0000000000000000e+00  0.0000000000000000e+00  0.0000000000000000e+00  0.0000000000000000e+00  0.0000000000000000e+00  0.0000000000000000e+00  0.0000000000000000e+00  0.0000000000000000e+00  0.0000000000000000e+00  0.0000000000000000e+00  0.0000000000000000e+00  0.0000000000000000e+00  0.0000000000000000e+00  0.0000000000000000e+00  0.0000000000000000e+00  0.0000000000000000e+00  0.0000000000000000e+00  0.0000000000000000e+00  0.0000000000000000e+00  0.0000000000000000e+00  0.0000000000000000e+00  0.0000000000000000e+00  0.0000000000000000e+00  0.0000000000000000e+00  0.0000000000000000e+00  0.0000000000000000e+00  0.0000000000000000e+00  0.0000000000000000e+00  0.0000000000000000e+00  0.0000000000000000e+00  0.0000000000000000e+00  0.0000000000000000e+00  0.0000000000000000e+00  0.0000000000000000e+00  0.0000000000000000e+00  0.0000000000000000e+00  0.0000000000000000e+00  0.0000000000000000e+00  0.0000000000000000e+00  0.0000000000000000e+00  0.0000000000000000e+00  0.0000000000000000e+00  0.0000000000000000e+00  0.0000000000000000e+00  0.0000000000000000e+00  0.0000000000000000e+00  0.0000000000000000e+00  0.0000000000000000e+00  0.0000000000000000e+00  0.0000000000000000e+00  0.0000000000000000e+00  0.0000000000000000e+00  0.0000000000000000e+00  0.0000000000000000e+00  0.0000000000000000e+00  0.0000000000000000e+00  0.0000000000000000e+00  0.0000000000000000e+00  0.0000000000000000e+00  0.0000000000000000e+00  0.0000000000000000e+00  0.0000000000000000e+00  0.0000000000000000e+00  0.0000000000000000e+00  0.0000000000000000e+00  0.0000000000000000e+00  0.0000000000000000e+00  0.0000000000000000e+00  0.0000000000000000e+00  0.0000000000000000e+00  0.0000000000000000e+00  0.0000000000000000e+00  0.0000000000000000e+00  0.0000000000000000e+00  0.0000000000000000e+00  0.0000000000000000e+00  0.0000000000000000e+00  0.0000000000000000e+00  0.0000000000000000e+00  0.0000000000000000e+00  0.0000000000000000e+00  0.0000000000000000e+00  0.0000000000000000e+00  0.0000000000000000e+00  0.0000000000000000e+00  0.0000000000000000e+00  0.0000000000000000e+00  0.0000000000000000e+00  0.0000000000000000e+00  0.0000000000000000e+00  0.0000000000000000e+00  0.0000000000000000e+00  0.0000000000000000e+00  0.0000000000000000e+00  0.0000000000000000e+00  0.0000000000000000e+00  0.0000000000000000e+00  0.0000000000000000e+00  0.0000000000000000e+00  0.0000000000000000e+00  0.0000000000000000e+00  0.0000000000000000e+00  0.0000000000000000e+00  0.0000000000000000e+00  0.0000000000000000e+00  0.0000000000000000e+00  0.0000000000000000e+00  0.0000000000000000e+00  0.0000000000000000e+00  0.0000000000000000e+00  0.0000000000000000e+00  0.0000000000000000e+00  0.0000000000000000e+00  0.0000000000000000e+00  0.0000000000000000e+00  0.0000000000000000e+00  0.0000000000000000e+00  0.0000000000000000e+00  0.0000000000000000e+00  0.0000000000000000e+00  0.0000000000000000e+00  0.0000000000000000e+00  0.0000000000000000e+00  0.0000000000000000e+00  0.0000000000000000e+00  0.0000000000000000e+00  0.0000000000000000e+00  0.0000000000000000e+00  0.0000000000000000e+00  0.0000000000000000e+00  0.0000000000000000e+00  0.0000000000000000e+00  0.0000000000000000e+00  0.0000000000000000e+00  0.0000000000000000e+00  0.0000000000000000e+00  0.0000000000000000e+00  0.0000000000000000e+00  0.0000000000000000e+00  0.0000000000000000e+00  0.0000000000000000e+00  0.0000000000000000e+00  0.0000000000000000e+00  0.0000000000000000e+00  0.0000000000000000e+00  0.0000000000000000e+00  0.0000000000000000e+00  0.0000000000000000e+00  0.0000000000000000e+00  0.0000000000000000e+00  0.0000000000000000e+00  0.0000000000000000e+00  0.0000000000000000e+00  0.0000000000000000e+00  0.0000000000000000e+00  0.0000000000000000e+00  0.0000000000000000e+00  0.0000000000000000e+00  0.0000000000000000e+00  5.7489826867309497e-05  5.7573438404915241e-05  5.8970250400376167e-05  5.9965820731319162e-05  6.1616163050632743e-05  6.3410648891783409e-05  6.5916362013824202e-05  6.8205256129040017e-05  6.9945927226937898e-05  7.1784519443462313e-05  7.2800852855719946e-05  7.3332959630948946e-05  7.3007257766491936e-05  7.1144588196831352e-05  6.8437885518963151e-05  6.4965819206157715e-05  6.0612164282907382e-05  5.5897467085815830e-05  5.0814490107410824e-05  4.5815138391463600e-05  4.1074858231101136e-05  3.6876008521410124e-05  3.3378142715116110e-05  3.0915676382730462e-05  2.9440624202829903e-05  2.9067539546555794e-05  2.9901521781934991e-05  3.1723373485458233e-05  3.4345324117043633e-05  3.7664411122284291e-05  4.1452109724249925e-05  4.5347990410360710e-05  4.8974823739506926e-05  5.2185437814379825e-05  5.5360744789083487e-05  5.6963050772794209e-05  5.8261661516189215e-05  5.8991710279144587e-05  5.9175407877075581e-05  5.9097831134942086e-05  5.9081389317906484e-05  5.9215050602086291e-05  5.9707994216941301e-05  6.0497493580901364e-05  6.1847472262504120e-05  6.2588613534036189e-05  6.4182993859831269e-05  6.6492569852269376e-05  6.9038648444081496e-05  7.1338203648419566e-05  7.3560004488068832e-05  7.5787045298636232e-05  7.7602040908326755e-05  7.8502399960286436e-05  7.8636803931666433e-05  7.7994066993008525e-05  7.6602606632468647e-05  7.4500113238869909e-05  7.1929465791382429e-05  6.9124533998519324e-05  6.6172448605157934e-05  6.3468582161329732e-05  6.1123513090692239e-05  5.9199615970935283e-05  6.2486134535024761e-05  3.5900571145817149e-05  5.3476543399045095e-05  5.2653096801790229e-05  5.1013969460073052e-05  2.9430605321353142e-05  6.0164102081607133e-05  6.7298857337180909e-05  6.7392472004513960e-05  6.1646883153116175e-05  5.3061575973088470e-05  3.6407746110954092e-05  6.2930697225247571e-05  6.0718552909355802e-05  5.4094011282787341e-05  5.0861980897615275e-05  4.5025224285141989e-05  5.8571833545878823e-05  2.9044507256232120e-05  5.7924813800324332e-05  5.7631968839494333e-05  4.3434508295914546e-05  5.1945189027036074e-05  5.5326491130987135e-05  5.2884534312322038e-05  5.3312065479519404e-05  5.3031134508707416e-05  5.5343949385441141e-05  5.4805315020723498e-05  5.7571370366022893e-05  5.5921007104723319e-05  5.8029768972257760e-05  6.0130533784096495e-05  6.0594382625963617e-05  6.2793848928005929e-05  5.7424464532108463e-05  5.9884591643169215e-05  6.1751509995426504e-05  6.4432083055526238e-05  6.5416035945597476e-05  6.6953042675744145e-05  5.7036164267468823e-05  5.8781889312586752e-05  6.1179611465236481e-05  6.5837978685671174e-05  6.7140655353459404e-05  6.7596630371025962e-05  6.6921545438810049e-05  6.6390925738774327e-05  6.5363445376488569e-05  6.4556105923621569e-05  6.5166131947426773e-05  5.3387882281490287e-05  5.2454080085640847e-05  6.5298918306341529e-05  6.3744048002568329e-05  6.1873119511534358e-05  6.0926617088694277e-05  6.3027735873566609e-05  6.1265800002690291e-05  6.2857917070179980e-05  6.1629304045178590e-05  6.2857129843007031e-05  6.2835040150383470e-05  6.2780478341502467e-05  6.1220562224296402e-05  6.0367932830241477e-05  5.7753631818427181e-05  5.6739515635172432e-05  5.2367136710501388e-05  5.4415387556428993e-05  4.8371766504055772e-05  5.0774161658815775e-05  4.3662614301258892e-05  4.7241239417079841e-05  4.1667228980022205e-05  4.1479186409885568e-05  4.4133114852202394e-05  4.9427559512051415e-05  5.8800527414044600e-05  4.8585754920570009e-05  5.2260911579174820e-05  5.1527880510521987e-05  5.4526965496310044e-05  4.2374378535098054e-05  6.1471126304582605e-05  3.8907656311766482e-05  3.6519432704761196e-05  6.1564730530480003e-05  4.6591194389501811e-05  5.0486113882587921e-05  5.4142440234277714e-05  5.7658392380366252e-05  5.8251955005404186e-05  6.6656114945633178e-05  5.2877486420945503e-05  4.9847366116518483e-05  5.9498783401268415e-05  6.0796476035448289e-05  5.7549951684688026e-05  3.4509403344476841e-05  3.7531786220433644e-05  3.5107118237312757e-05  3.1691362998852641e-05  3.8956388982876811e-05  3.3756941292151998e-05  6.2027372498831823e-05  6.2417374865689524e-05  6.1369213742230893e-05  5.8546847002916587e-05  5.5333226529231659e-05  5.5678506540516825e-05  5.6026207290931709e-05  5.5021682475243406e-05  5.4968533086423792e-05  5.9674204209924746e-05  5.6267076524725388e-05  6.2021906112825554e-05  6.2438320206926513e-05  5.9735258200413080e-05  4.5504068277627885e-05  4.5421882355400351e-05  6.0376616478322037e-05  6.6660306542142773e-05  6.6818931791258352e-05  6.4637031018162497e-05  6.5450963110479571e-05  6.1933097372362633e-05  6.4368436689913591e-05  6.3000704285946253e-05  5.8057383140298869e-05  5.8842458598825117e-05  3.4417133287917757e-05  5.6728816399551698e-05  5.6205411941351041e-05  5.2363053594561311e-05  4.9539640091203438e-05  5.0436444191862996e-05  5.3377689197995488e-05  5.9329507098740814e-05  6.1375478811262463e-05  4.7673754091510483e-05  6.4977351843911616e-05  6.2903963217557084e-05  4.2318227857786964e-05  6.6235089220263724e-05  5.1904432757229984e-05  3.9377310650814859e-05  6.8254595651830879e-05  6.6233623552512888e-05  5.2983187468151717e-05  6.8488170373286116e-05  6.4335206021254337e-05  6.3600918341913583e-05  6.3384589726916648e-05  5.8184037969284676e-05  6.0137828097466010e-05  5.4897677353095230e-05  5.7666700538209324e-05  5.6066651923963775e-05  6.2081396509165769e-05  5.9195179219149183e-05  3.1185999185516715e-05  5.4397317142315232e-05  5.4918885301447072e-05  5.3327191251140304e-05  4.7353321907171789e-05  4.8145993278304117e-05  2.8377767930986185e-05  6.4393997257560987e-05  6.2814789470581301e-05  4.1668664834361590e-05  5.2618759736470183e-05  6.5501245476266994e-05  6.6149724517860630e-05  5.5416442975750156e-05  3.9514524184964831e-05  3.8746572778730734e-05  3.2906747623799714e-05  5.9080346410402035e-05  5.9947957068163626e-05  5.6471353797224294e-05  5.4969474111180940e-05  6.2692466082705812e-05  5.3957041991993628e-05  5.3008121244511269e-05  4.6755557059225701e-05  2.8312172530147662e-05  5.4017804656557654e-05  5.6181762618626922e-05  6.3625502423966026e-05  3.1115964272643459e-05  6.1966717587052546e-05  5.1678050080231739e-05  5.5241890671695362e-05  6.1952907195257208e-05  3.9208140185672371e-05  3.0581676293560884e-05  5.1502327158869083e-05  5.9931553579656717e-05  5.4298685278752696e-05  6.4796133764498401e-05  5.5832425493096753e-05  3.8238119917926997e-05  5.8328507412918345e-05  6.0526790042075613e-05  5.3285899042907723e-05  4.2903771252185081e-05  5.8254948377640771e-05  5.7387847245465589e-05  3.2452121976339484e-05  3.6706364987567551e-05  4.2062433203672754e-05  4.4161372937823370e-05  3.3656863621016678e-05  5.5226938487250677e-05  5.6854364682409726e-05  5.3730585673334980e-05  5.5090623479483586e-05  6.6237939861633842e-05  6.2143119106179446e-05  5.3469562358649874e-05  6.6756136145116728e-05  3.0964406214254674e-05  5.3070829640058339e-05  6.0600035273171431e-05  5.8673338084517358e-05  4.4973117187950869e-05  6.7054748310059912e-05  6.3133541400941623e-05  6.4136157587981466e-05  5.5502150668543226e-05  5.3637425124461724e-05  6.7382225319745595e-05  6.7273497490510313e-05  4.4926010671406829e-05  5.7778198232337353e-05  5.4894308669317286e-05  5.9593361262132205e-05  4.9027469537375509e-05  6.6007587174825126e-05  5.1668084636682741e-05  3.5761826235322732e-05  4.9293049848901608e-05  6.4129239690018859e-05  6.6521359035639837e-05  5.7987870249304570e-05  4.8595048920304824e-05  4.7791410398851293e-05  6.3742267056464332e-05  6.3483963993008684e-05  6.1725560562703605e-05  6.0220083364219807e-05  5.9837095859084298e-05  3.1494114655059156e-05  6.2898161879226867e-05  4.1111850257615772e-05  6.0653941459543032e-05  4.5286592002482964e-05  5.4168506068608589e-05  6.1552769354318340e-05  6.4419497841325260e-05  6.2250437973236097e-05  6.1596432470104241e-05  6.5711946066055677e-05  6.3816217016565038e-05  5.5601180298966612e-05  8.3944503244984836e-05  4.7191417371043904e-05  6.4642981969667765e-05  8.7543018960595083e-05  6.2852032451336351e-05  3.7534939508266334e-05  6.5266201097244469e-05  6.4818734984647744e-05  8.3602833939355943e-05  4.2766895856799690e-05  6.9098508562405968e-05  7.6077149663167136e-06  7.4687954123641163e-05  9.7673157825702636e-06  7.5493630749459557e-05  8.8291504470145194e-06  7.3934592871371639e-05  1.4790444951057279e-05  1.1333970065292506e-05  6.6037520126079323e-05  7.7269785636363360e-05  1.5957019337168304e-05  3.2274494012605315e-05  3.0388290572731615e-05  8.0591502093428521e-05  1.1558637272601358e-05  7.0024414569661068e-06  6.4684906022267389e-05  1.6303501247634785e-05  9.0869320497219134e-06  1.6599613482817313e-05  7.0159983860725776e-05  1.5133420456953349e-05  8.1950171610020492e-05  1.5762308484656340e-05  1.8690858877918648e-05  7.6028967067059708e-06  2.2267375714843611e-05  2.2708270347524400e-05  6.6057371760671517e-05  6.5848510344406328e-06  2.0185508248242958e-05  1.6870427957620902e-05  6.6366986046155024e-06  1.0191815490219504e-05  6.1157084456274335e-06  2.6427799457866464e-05  6.6880352283807740e-06  5.3034183848503140e-06  2.2457559489735596e-05  9.9557879851112489e-06  5.4548140632847332e-06  6.6976416926941434e-05  6.2011437102910642e-05  6.1626106336880066e-05  6.1464556154918173e-05  5.4774811571742184e-05  5.3804365077000140e-05  6.0070464380911382e-05  5.1470088853654035e-05  5.7948113179557409e-05  4.7514834728767396e-05  5.4654301513467299e-05  4.6263484147739580e-05  6.5148788895939413e-05  6.1024768880538187e-05  5.0866891759807508e-05  5.7270254408425430e-05  4.6301094074159178e-05  5.2696166393199754e-05  6.4260646382482015e-05  5.7627458979618779e-05  4.7050839063731545e-05  5.1145489799671801e-05  6.0537701978259260e-05  5.3475896612799582e-05  6.4315064146572179e-05  5.4284633734809324e-05  6.3112535762586979e-05  5.2547094094828436e-05  6.0502821039841689e-05  4.3497054655601226e-05  7.2747989052621527e-05  4.9333824148397480e-05  5.6417003874571181e-05  6.7575947557232442e-05  6.2904437032345269e-05  5.0950901078306295e-05  5.7100964259592839e-05  4.4667022902232368e-05  5.0562569721417688e-05  6.1978751924268464e-05  5.5273348612236488e-05  4.3848268658423678e-05  3.8563898221348391e-05  7.3980057927621799e-05  7.7451600166125769e-05  6.5766284646467713e-05  5.9398207572475907e-05  4.8646462290990700e-05  5.3963171751515074e-05  4.2111246515331982e-05  4.6024198081651848e-05  5.5176442497794728e-05  4.8491735801837415e-05  3.9964116140705349e-05  4.2887150337193870e-05  5.1477123547958284e-05  4.5333040393322836e-05  3.7044518383175930e-05  4.0158022531367028e-05  4.8516576880411111e-05  4.2648586184268648e-05  3.4535633602733607e-05  3.6875321164533622e-05  4.4951340065328223e-05  3.8515645535577161e-05  4.5935418204423138e-05  3.8870846467494607e-05  4.6129590844244697e-05  3.8060221182885197e-05  4.5080765539814011e-05  3.1878886212544418e-05  3.5263754381248107e-05  4.1720551984557990e-05  5.2041200255370207e-05  4.8454196300801590e-05  5.3973670132153700e-05  5.9970317305742726e-05  5.4880577524389751e-05  2.8760192196892935e-05  4.3171904983849161e-05  4.8771440566438235e-05  6.1995963548190067e-05  5.3819375237549509e-05  6.6676384907867376e-05  5.8053834181147668e-05  6.9111662547893769e-05  6.2070113896069680e-05  4.8691639062106048e-05  5.1241892708138653e-05  6.4296307683009857e-05  5.2943846799226759e-05  6.2429646374059225e-05  5.2381888733150629e-05  6.1322601872086153e-05  4.9865389615365460e-05  5.6921857098515187e-05  4.6607381814680380e-05  5.0347155308981270e-05  4.2369884028947709e-05  4.4961624727903793e-05  3.7376967876549567e-05  3.8975966608797864e-05  3.1940311380618991e-05  3.2660228442309227e-05  2.6406352337792823e-05  2.5995289697125932e-05  3.4157785035637521e-05  3.1957290133873780e-05  2.5558894650079319e-05  2.5010632726556488e-05  2.0161027421023899e-05  3.0960771483301114e-05  2.3848689304553523e-05  1.8751858515615326e-05  4.7247618426606871e-05  2.8493732985000312e-05  2.1842004984692199e-05  2.5628048121277162e-05  2.0784227232448803e-05  2.2971565217277933e-05  1.8804865075753807e-05  2.1699442273369569e-05  1.7535406254883365e-05  2.1693846198850395e-05  2.7887005623668427e-05  6.5827353453726077e-05  2.9116646444229784e-05  2.5798308270676831e-05  7.1774348649623570e-05  1.6788306862110021e-05  2.1040899317634564e-05  1.5121590796177867e-05  7.1904716134017777e-05  3.7311655804357856e-05  4.1540508045373022e-05  1.8365792987119035e-05  2.3906562173456564e-05  7.1875839460016405e-05  6.1237493751440826e-05  2.5712387285810369e-05  2.6762665352006393e-05  2.1138160007288523e-05  2.6732156178301764e-05  2.1233000126131803e-05  2.7195616152167505e-05  3.2820989999480947e-05  3.3398155470788513e-05  2.7277133147654313e-05  3.3242558998413054e-05  2.6603795227382336e-05  3.2130712450263091e-05  3.9190576323161045e-05  3.7256334686924453e-05  4.4370232541056686e-05  4.1568668240375218e-05  3.4307814779159711e-05  3.7783526642470655e-05  3.0435275859664948e-05  4.4985367015127244e-05  4.0094707018664683e-05  4.7183543939769886e-05  4.1094332429232975e-05  4.8224700255214441e-05  4.1001600838023888e-05  4.8136981874205423e-05  3.4444419663007325e-05  2.7102060973407132e-05  2.3460489437778533e-05  5.4377254636322198e-05  3.9041837233637902e-05  4.6217025264572533e-05  5.1293191205715213e-05  3.9829293034527986e-05  4.8372181666334499e-05  3.2383528236384448e-05  5.5001644688224264e-05  5.4515570668312358e-05  4.7004030517646508e-05  6.0094887250492441e-05  2.5807053143403532e-05  1.9022344100668642e-05  1.6637713581748544e-05  2.0038911279452591e-05  2.5075248423350311e-05  1.9700889525211886e-05  3.7155054487639355e-05  1.4383184328050862e-05  1.5871511505913371e-05  4.5639606842157689e-05  2.2190541724970572e-05  4.7750312715437702e-06  3.4907962620367950e-06  5.1638550827913856e-05  4.4573414142704575e-05  8.2733715563329980e-05  8.4710559365836318e-05  1.7376036837554499e-05  7.4044855987751070e-05  7.8944212544710329e-05  7.7123409234305067e-05  3.0900909582586773e-05  3.7607737362355569e-05  3.4144847158676173e-05  1.2397885425378514e-05  2.6075968642175472e-05  3.3973375816159776e-05  6.7445463517774377e-05  3.8510676132612323e-05  4.3357948558357321e-05  3.0438532335638267e-05  6.9848992317482985e-05  7.5185561471871295e-05  7.7730029919835275e-05  7.7536481261248922e-05  7.1400617460750160e-05  1.2799568254694411e-05  8.7181505294167718e-05  1.7002323634705800e-05  7.5266536026005924e-05  3.8496381891135196e-05  6.6856568263177005e-05  6.6106441837146887e-05  6.3208250067724715e-05  6.1572549635342257e-05  3.1484987858183084e-05  5.2677909582508323e-05  5.7114962494489209e-05  5.5489217248090648e-05  2.9529166713707961e-05  2.2696887906491022e-05  2.5272163995295199e-05  1.2482498146120692e-05  6.0646583161098629e-05  5.8936983255597818e-05  6.3395051629819871e-05  5.9427428103741529e-05  8.0460027920657172e-05  4.7946694907956974e-05  5.9386589589186518e-05  6.8678756213814464e-05  1.4675020584345170e-05  6.5323169367468249e-05  5.6281474535336439e-05  3.6419163199729255e-05  2.9692348152751148e-05  2.6599215430205214e-05  6.0155692360352890e-05  5.5297053203683852e-05  8.6266792331130560e-05  4.1894729285081044e-05  3.7871811376929569e-05  4.2763015201807712e-05  4.7614663758442316e-05  5.2936580039860079e-05  5.8956430723554611e-05  6.0933807697726587e-05  6.6297780070705505e-05  5.4522040438771286e-05  4.4053064449328625e-05  3.6127784110447228e-05  6.3126577746739547e-05  6.1037558632305025e-05  6.1232947196705075e-05  6.3961189509358936e-05  6.1051205596411270e-05  3.0686017998555843e-05  1.2401094720909673e-05  6.0766595224915343e-05  5.3377766647693456e-05  2