<?xml version="1.0"?>
<VTKFile type="UnstructuredGrid"  version="0.1"  >
<UnstructuredGrid>
<Piece  NumberOfPoints="1181" NumberOfCells="2264">
<Points>
<DataArray  type="Float64"  NumberOfComponents="3"  format="ascii">0 0 0  0 1 0  1 1 0  1 0 0  1.1 -0.1 0  -0.1 -0.1 0  1.1 1.1 0  -0.1 1.1 0  0.5495506909417345 0.5451325372350161 0  0.6123593174194133 0.7196591238485174 0  0 0.9499999999997918 0  0 0.8999999999995836 0  0 0.8499999999996529 0  0 0.7999999999999998 0  0 0.7500000000003466 0  0 0.7000000000006934 0  0 0.6500000000010401 0  0 0.6000000000013869 0  0 0.5500000000017335 0  0 0.5000000000020587 0  0 0.4500000000018723 0  0 0.4000000000016644 0  0 0.3500000000014564 0  0 0.3000000000012483 0  0 0.2500000000010403 0  0 0.2000000000008322 0  0 0.1500000000006241 0  0 0.100000000000416 0  0 0.05000000000020799 0  0.04999999999989965 0 0  0.09999999999981467 0 0  0.1499999999997036 0 0  0.1999999999995579 0 0  0.2499999999994121 0 0  0.2999999999992664 0 0  0.3499999999991206 0 0  0.3999999999989749 0 0  0.4499999999988292 0 0  0.4999999999986943 0 0  0.5499999999988151 0 0  0.5999999999989468 0 0  0.6499999999990784 0 0  0.69999999999921 0 0  0.7499999999993417 0 0  0.7999999999994734 0 0  0.8499999999996051 0 0  0.8999999999997368 0 0  0.9499999999998684 0 0  1 0.04999999999989965 0  1 0.09999999999981467 0  1 0.1499999999997036 0  1 0.1999999999995579 0  1 0.2499999999994121 0  1 0.2999999999992664 0  1 0.3499999999991206 0  1 0.3999999999989749 0  1 0.4499999999988292 0  1 0.4999999999986943 0  1 0.5499999999988151 0  1 0.5999999999989468 0  1 0.6499999999990784 0  1 0.69999999999921 0  1 0.7499999999993417 0  1 0.7999999999994734 0  1 0.8499999999996051 0  1 0.8999999999997368 0  1 0.9499999999998684 0  0.9499999999997918 1 0  0.8999999999995836 1 0  0.8499999999996529 1 0  0.7999999999999998 1 0  0.7500000000003466 1 0  0.7000000000006934 1 0  0.6500000000010401 1 0  0.6000000000013869 1 0  0.5500000000017335 1 0  0.5000000000020587 1 0  0.4500000000018723 1 0  0.4000000000016644 1 0  0.3500000000014564 1 0  0.3000000000012483 1 0  0.2500000000010403 1 0  0.2000000000008322 1 0  0.1500000000006241 1 0  0.100000000000416 1 0  0.05000000000020799 1 0  -0.1 1.05000000000004 0  -0.1 1.000000000000079 0  -0.1 0.9500000000001624 0  -0.1 0.9000000000003032 0  -0.1 0.850000000000444 0  -0.1 0.8000000000005848 0  -0.1 0.7500000000007256 0  -0.1 0.7000000000008665 0  -0.1 0.6500000000010508 0  -0.1 0.6000000000012352 0  -0.1 0.5500000000014196 0  -0.1 0.500000000001539 0  -0.1 0.4500000000014195 0  -0.1 0.4000000000013 0  -0.1 0.3500000000011588 0  -0.1 0.3000000000010178 0  -0.1 0.2500000000008986 0  -0.1 0.2000000000007579 0  -0.1 0.1500000000006174 0  -0.1 0.1000000000005272 0  -0.1 0.05000000000040083 0  -0.1 2.671196597248127e-13 0  -0.1 -0.0499999999998666 0  -0.0500000000000906 -0.1 0  -1.730560139634463e-13 -0.1 0  0.04999999999975802 -0.1 0  0.09999999999961506 -0.1 0  0.1499999999994613 -0.1 0  0.199999999999302 -0.1 0  0.2499999999991446 -0.1 0  0.2999999999990088 -0.1 0  0.3499999999988296 -0.1 0  0.3999999999986936 -0.1 0  0.4499999999985143 -0.1 0  0.4999999999984002 -0.1 0  0.5499999999985247 -0.1 0  0.5999999999986493 -0.1 0  0.6499999999987955 -0.1 0  0.6999999999989417 -0.1 0  0.7499999999990659 -0.1 0  0.7999999999992116 -0.1 0  0.8499999999993573 -0.1 0  0.8999999999994526 -0.1 0  0.949999999999584 -0.1 0  0.9999999999997226 -0.1 0  1.049999999999861 -0.1 0  1.1 -0.0500000000000906 0  1.1 -1.730560139634463e-13 0  1.1 0.04999999999975802 0  1.1 0.09999999999961506 0  1.1 0.1499999999994613 0  1.1 0.199999999999302 0  1.1 0.2499999999991446 0  1.1 0.2999999999990088 0  1.1 0.3499999999988296 0  1.1 0.3999999999986936 0  1.1 0.4499999999985143 0  1.1 0.4999999999984002 0  1.1 0.5499999999985247 0  1.1 0.5999999999986493 0  1.1 0.6499999999987955 0  1.1 0.6999999999989417 0  1.1 0.7499999999990659 0  1.1 0.7999999999992116 0  1.1 0.8499999999993573 0  1.1 0.8999999999994526 0  1.1 0.949999999999584 0  1.1 0.9999999999997226 0  1.1 1.049999999999861 0  1.05000000000004 1.1 0  1.000000000000079 1.1 0  0.9500000000001624 1.1 0  0.9000000000003032 1.1 0  0.850000000000444 1.1 0  0.8000000000005848 1.1 0  0.7500000000007256 1.1 0  0.7000000000008665 1.1 0  0.6500000000010508 1.1 0  0.6000000000012352 1.1 0  0.5500000000014196 1.1 0  0.500000000001539 1.1 0  0.4500000000014195 1.1 0  0.4000000000013 1.1 0  0.3500000000011588 1.1 0  0.3000000000010178 1.1 0  0.2500000000008986 1.1 0  0.2000000000007579 1.1 0  0.1500000000006174 1.1 0  0.1000000000005272 1.1 0  0.05000000000040083 1.1 0  2.671196597248127e-13 1.1 0  -0.0499999999998666 1.1 0  0.6456696094625822 0.7125322167216663 0  0.6777187091037035 0.698563075874049 0  0.7063090348956041 0.6772308285942052 0  0.7280335050787687 0.6488556552263069 0  0.7401088893677576 0.6156227465665525 0  0.7467525733867755 0.5816260810055385 0  0.7484515011060725 0.5474817688398372 0  0.7478729035825484 0.5135912216633033 0  0.7447860163506096 0.4799264055878407 0  0.7392569307188284 0.4467288604542427 0  0.7312546366150103 0.4140019087123498 0  0.7207399109616506 0.3820255126482184 0  0.7076146226320637 0.3509492459069928 0  0.6912468232142143 0.3215452007092134 0  0.6712203308811139 0.2941500213179185 0  0.6456807542158811 0.2712399919942337 0  0.6158661570342474 0.2544772062701011 0  0.5827352667677367 0.2482735290907089 0  0.5498228117578972 0.250025451881807 0  0.5185575384517359 0.2579707756869733 0  0.4885786838268604 0.2688828370297142 0  0.4597488622873764 0.2817914905832296 0  0.4316170389510354 0.2960424095263642 0  0.4042391392914022 0.3115173403610899 0  0.3775980034234007 0.3280225972237329 0  0.351754549047362 0.3453842503791938 0  0.3265728039128478 0.3634217577148158 0  0.3021839885710978 0.3821259848613643 0  0.27856979812884 0.4012646868850481 0  0.2557029227589327 0.4209759333695109 0  0.2335621039109576 0.4411373510078898 0  0.2124191111173064 0.4622619423294285 0  0.1934897897767972 0.4856011118310133 0  0.180570848747663 0.5134838570172471 0  0.1827024257761692 0.5459386307486677 0  0.1987518760168056 0.5733047947451968 0  0.2213218274574182 0.5947205705606803 0  0.2460989950729986 0.6134070812968961 0  0.2720799578926061 0.6305302727845638 0  0.2990201582682102 0.6465670731765599 0  0.3268842840364466 0.6614804753365277 0  0.3557562398056753 0.6752015321988617 0  0.3854563560206233 0.687365543788629 0  0.4161680116163442 0.6979731263048741 0  0.4477083924284497 0.7069174855665683 0  0.4797036906874534 0.7141183676587443 0  0.5123501765658256 0.7193294380764076 0  0.545495659717722 0.7222639001959281 0  0.5788205483632184 0.7226073250267819 0  0.3536234112878633 0.6392154917874975 0  0.3355617552057221 0.3928821120985753 0  0.5465876723641492 0.28219975331391 0  0.6763441584003044 0.349069660933101 0  0.2626095245064889 0.4536921671326075 0  0.6747705368285415 0.666823849276134 0  0.4055218023459758 0.3437706089552488 0  0.272640647747792 0.5961447261916635 0  0.7079609388713181 0.431432616763249 0  0.45981130893128 0.3152941874764968 0  0.4162678769113459 0.6581056618766059 0  0.4689601948992013 0.6812033344041282 0  0.5330137238624097 0.6899839718823711 0  0.718762372785868 0.5644616038514003 0  0.7168811939619101 0.5004214615306779 0  0.5960589560056808 0.6902770806967927 0  0.2235400701643847 0.4956485932938196 0  0.6210975311431158 0.2888894146570172 0  0.2271188191243344 0.5596661284768598 0  0.7058427687115799 0.623343141314186 0  0.2064767416764485 0.5288018905969176 0  0.2379048877015913 0.5275842294153998 0  0.252756501832534 0.5011815138159621 0  0.2666848295358224 0.5295911238976663 0  0.2822556848633861 0.5038141422905986 0  0.2964881105397706 0.5334553250685402 0  0.3124920201876124 0.5047298244747166 0  0.3272870269500895 0.537032494167533 0  0.3442345398657226 0.5064427234286137 0  0.3595639755991435 0.5410386352777766 0  0.3779889119179163 0.5088799191552534 0  0.3954493419709348 0.5449574778824069 0  0.417445337119454 0.5091430095138592 0  0.3932622823230261 0.4655605089729892 0  0.4402686502534095 0.4679728028702994 0  0.3276226137394733 0.4742198977084732 0  0.3400220078873642 0.5704548484070926 0  0.4374246049203446 0.5591045012578768 0  0.4192911771672496 0.424095596681364 0  0.4684986397493082 0.431662294980762 0  0.4082321684129929 0.5926131378919024 0  0.4580630341704922 0.5988755776866953 0  0.3814181498711636 0.4255468529073892 0  0.3903938407797669 0.3930508882916768 0  0.4223293291050497 0.3885179671815087 0  0.4641545810647558 0.3747907868972516 0  0.4308535016825019 0.6263736760948757 0  0.4950831108517045 0.4863363613609643 0  0.5196454373771902 0.4231805212674455 0  0.513816163716695 0.3674558634548344 0  0.4859813240460756 0.5557953845761306 0  0.5052786180478901 0.5928773482885297 0  0.5629004407469276 0.5953848952965564 0  0.4788282719477476 0.6319437386949206 0  0.2778621470076271 0.5628644898177212 0  0.2923350304396387 0.4707537973856586 0  0.3106056169552825 0.4471789726616811 0  0.3370595077086249 0.445815307646572 0  0.3096131357891551 0.5646191025681339 0  0.3196213158703953 0.5947056095986089 0  0.3509057454622078 0.6043047869894821 0  0.3729779261340104 0.5775944156912793 0  0.3829938435124218 0.6117171386109993 0  0.3832728962707268 0.6482511918249187 0  0.3590678311155849 0.376291106121204 0  0.3810608352798631 0.3606014777214386 0  0.4323972719076252 0.329079435336808 0  0.4401584119482621 0.6759921284906533 0  0.4879621986332816 0.3018141510484543 0  0.4886149337257151 0.335701591312432 0  0.5164330581838084 0.3204372097229176 0  0.5465393985580805 0.345508274336648 0  0.5549191613538699 0.3858366787601298 0  0.5773479989701865 0.4292674487227503 0  0.5842418372598388 0.3593152463654731 0  0.6198794071600505 0.4102211191763283 0  0.5755163239619282 0.3275319569030343 0  0.610782877552648 0.3407177174499823 0  0.5013759716926334 0.6876139268419139 0  0.521192007232235 0.6600298032319175 0  0.5516673993768975 0.6603492565118623 0  0.7183545377117588 0.5328218576930349 0  0.6884190651425942
[...]
<PointData  Scalars="v"> 
<DataArray  type="Float64"  Name="v"  format="ascii">0.0000000000000000e+00  0.0000000000000000e+00  0.0000000000000000e+00  0.0000000000000000e+00  0.0000000000000000e+00  0.0000000000000000e+00  0.0000000000000000e+00  0.0000000000000000e+00  6.2465385473546480e-05  8.0200483548831155e-05  0.0000000000000000e+00  0.0000000000000000e+00  0.0000000000000000e+00  0.0000000000000000e+00  0.0000000000000000e+00  0.0000000000000000e+00  0.0000000000000000e+00  0.0000000000000000e+00  0.0000000000000000e+00  0.0000000000000000e+00  0.0000000000000000e+00  0.0000000000000000e+00  0.0000000000000000e+00  0.0000000000000000e+00  0.0000000000000000e+00  0.0000000000000000e+00  0.0000000000000000e+00  0.0000000000000000e+00  0.0000000000000000e+00  0.0000000000000000e+00  0.0000000000000000e+00  0.0000000000000000e+00  0.0000000000000000e+00  0.0000000000000000e+00  0.0000000000000000e+00  0.0000000000000000e+00  0.0000000000000000e+00  0.0000000000000000e+00  0.0000000000000000e+00  0.0000000000000000e+00  0.0000000000000000e+00  0.0000000000000000e+00  0.0000000000000000e+00  0.0000000000000000e+00  0.0000000000000000e+00  0.0000000000000000e+00  0.0000000000000000e+00  0.0000000000000000e+00  0.0000000000000000e+00  0.0000000000000000e+00  0.0000000000000000e+00  0.0000000000000000e+00  0.0000000000000000e+00  0.0000000000000000e+00  0.0000000000000000e+00  0.0000000000000000e+00  0.0000000000000000e+00  0.0000000000000000e+00  0.0000000000000000e+00  0.0000000000000000e+00  0.0000000000000000e+00  0.0000000000000000e+00  0.0000000000000000e+00  0.0000000000000000e+00  0.0000000000000000e+00  0.0000000000000000e+00  0.0000000000000000e+00  0.0000000000000000e+00  0.0000000000000000e+00  0.0000000000000000e+00  0.0000000000000000e+00  0.0000000000000000e+00  0.0000000000000000e+00  0.0000000000000000e+00  0.0000000000000000e+00  0.0000000000000000e+00  0.0000000000000000e+00  0.0000000000000000e+00  0.0000000000000000e+00  0.0000000000000000e+00  0.0000000000000000e+00  0.0000000000000000e+00  0.0000000000000000e+00  0.0000000000000000e+00  0.0000000000000000e+00  0.0000000000000000e+00  0.0000000000000000e+00  0.0000000000000000e+00  0.0000000000000000e+00  0.0000000000000000e+00  0.0000000000000000e+00  0.0000000000000000e+00  0.0000000000000000e+00  0.0000000000000000e+00  0.0000000000000000e+00  0.0000000000000000e+00  0.0000000000000000e+00  0.0000000000000000e+00  0.0000000000000000e+00  0.0000000000000000e+00  0.0000000000000000e+00  0.0000000000000000e+00  0.0000000000000000e+00  0.0000000000000000e+00  0.0000000000000000e+00  0.0000000000000000e+00  0.0000000000000000e+00  0.0000000000000000e+00  0.0000000000000000e+00  0.0000000000000000e+00  0.0000000000000000e+00  0.0000000000000000e+00  0.0000000000000000e+00  0.0000000000000000e+00  0.0000000000000000e+00  0.0000000000000000e+00  0.0000000000000000e+00  0.0000000000000000e+00  0.0000000000000000e+00  0.0000000000000000e+00  0.0000000000000000e+00  0.0000000000000000e+00  0.0000000000000000e+00  0.0000000000000000e+00  0.0000000000000000e+00  0.0000000000000000e+00  0.0000000000000000e+00  0.0000000000000000e+00  0.0000000000000000e+00  0.0000000000000000e+00  0.0000000000000000e+00  0.0000000000000000e+00  0.0000000000000000e+00  0.0000000000000000e+00  0.0000000000000000e+00  0.0000000000000000e+00  0.0000000000000000e+00  0.0000000000000000e+00  0.0000000000000000e+00  0.0000000000000000e+00  0.0000000000000000e+00  0.0000000000000000e+00  0.0000000000000000e+00  0.0000000000000000e+00  0.0000000000000000e+00  0.0000000000000000e+00  0.0000000000000000e+00  0.0000000000000000e+00  0.0000000000000000e+00  0.0000000000000000e+00  0.0000000000000000e+00  0.0000000000000000e+00  0.0000000000000000e+00  0.0000000000000000e+00  0.0000000000000000e+00  0.0000000000000000e+00  0.0000000000000000e+00  0.0000000000000000e+00  0.0000000000000000e+00  0.0000000000000000e+00  0.0000000000000000e+00  0.0000000000000000e+00  0.0000000000000000e+00  0.0000000000000000e+00  0.0000000000000000e+00  0.0000000000000000e+00  0.0000000000000000e+00  0.0000000000000000e+00  0.0000000000000000e+00  0.0000000000000000e+00  0.0000000000000000e+00  0.0000000000000000e+00  0.0000000000000000e+00  0.0000000000000000e+00  0.0000000000000000e+00  0.0000000000000000e+00  0.0000000000000000e+00  0.0000000000000000e+00  6.3697562759157346e-05  4.7330677981291547e-05  3.3937419483957421e-05  2.4466239981617971e-05  1.9798766134139273e-05  1.8297791840787866e-05  1.8659632275236293e-05  1.9556123019124022e-05  2.0366164082224253e-05  2.0875125362256467e-05  2.0976268463910269e-05  2.0578443347936961e-05  2.0418162863609456e-05  2.1297467478174744e-05  2.4074953581307081e-05  3.0434212762064867e-05  4.0094874098687277e-05  5.4810749327401613e-05  6.9958472436265154e-05  8.5757811237829786e-05  1.0039059723970026e-04  1.1143091972371919e-04  1.1742823480566099e-04  1.1791484433422319e-04  1.1231472644548720e-04  1.0048121887403487e-04  8.2877032182343785e-05  6.0900360966310705e-05  3.6273450291368242e-05  1.1248534331003476e-05  -1.2247584482789883e-05  -3.1613659124331751e-05  -4.5856341415122223e-05  -5.4878586481715032e-05  -5.7674835986258019e-05  -5.2430319856017172e-05  -4.1565116669248975e-05  -2.4116798034166054e-05  -1.8711299740054986e-06  2.3167208196536969e-05  4.8744938466020199e-05  7.2419702658759572e-05  9.2524697653620309e-05  1.0791816693252171e-04  1.1795395049771335e-04  1.2081608801476669e-04  1.1723766197935057e-04  1.0935541227473495e-04  9.5973472234880415e-05  4.7705051447164662e-05  5.9406389423849728e-05  6.1525753595394141e-05  2.3033763772509239e-05  -3.7578073035052638e-06  3.7593960295756445e-05  9.1199209241055735e-05  -1.2550221161794126e-05  2.2435687148613374e-05  9.0274557526016480e-05  7.8237938938392724e-05  9.4387076952791960e-05  8.9661201022727863e-05  2.1610500242711588e-05  2.2136545302041944e-05  7.0245354965170378e-05  -3.6540128828645294e-05  3.3276126570812863e-05  -4.1064380856974984e-05  2.4967181070861104e-05  -4.7136987163452182e-05  -3.6131424411005733e-05  -2.4688016449875958e-05  -2.1543759228192573e-05  -8.9510634643665774e-06  -4.2680403514900797e-06  8.3709402406392152e-06  1.4106610667242924e-05  2.5817487837830858e-05  3.1916520732821159e-05  4.1527193943162403e-05  4.8356045731142969e-05  5.5316445021388674e-05  5.3768759689258160e-05  6.3677791799589132e-05  2.3924942047479050e-05  2.3712210689571623e-05  6.3129143623841984e-05  6.9307594596924871e-05  6.9768608717837895e-05  6.0118584837927160e-05  7.3645222543616216e-05  6.1072118362482902e-05  7.3108195955466662e-05  7.8393235455175275e-05  8.0002684326483796e-05  7.4537326367864329e-05  6.4141911454382124e-05  6.4946783622923316e-05  7.1122017270603229e-05  6.8713013228561249e-05  7.4565871403051905e-05  6.6798685227355373e-05  8.2833082337700539e-05  -1.4804055554805843e-05  5.6317238097628397e-06  2.4172428595512964e-05  3.7409275330716973e-05  4.9369438114902837e-06  1.5971586686396083e-05  3.6183972546662055e-05  4.2444528958860941e-05  5.3967465075870996e-05  6.4201402019261431e-05  7.3473835909670522e-05  8.3726100295500032e-05  9.3019457369743273e-05  9.0821310161426331e-05  8.3628102535422921e-05  7.9978051197624061e-05  7.2533935399738046e-05  6.2421722457146439e-05  5.8631945382175757e-05  5.2336430339779099e-05  4.9995561015339604e-05  4.1084060060094161e-05  5.1969160906821636e-05  4.0416636875830157e-05  9.4886415999788869e-05  8.5814911716786677e-05  7.9701823424334537e-05  2.1856094168095626e-05  2.8360819451784734e-05  2.8397343333344755e-05  3.5420074378004593e-05  3.5951290538314688e-05  3.5143869290737394e-05  4.1603678900510490e-05  4.2330945472519615e-05  3.3948139665692688e-05  3.3065413056660093e-05  2.6506443238204572e-05  5.0825353384348533e-05  3.9227246433835444e-05  3.8234823458912529e-05  3.0780569526992671e-05  3.2035735439293782e-05  2.8612007236131463e-05  2.2573424783737213e-05  8.0954660818110977e-05  -2.9579337436042134e-05  7.4372370057536073e-05  5.7954242687274303e-05  5.9878067883486726e-05  4.7989935385690749e-05  5.1008757087382407e-05  3.6959450136714107e-05  4.2049317904592519e-05  5.2981176999845485e-05  3.1014730823366408e-05  4.4162633813621279e-05  6.1945509782481166e-05  3.5026494437723301e-05  4.3811464631897902e-05  2.8471490236603054e-05  1.5808312927040419e-05  2.2181582557263669e-05  5.4760246501792669e-05  6.2382188744357573e-05  6.8285479832231195e-06  7.7722762776606796e-05  8.3950747306416856e-05  4.2383085484024106e-05  4.6118732834895430e-05  8.4949785755855119e-05  -2.1527339634828696e-05  3.8476695142319868e-05  2.2331945648650762e-05  7.0833136919740713e-05  8.3338918010024749e-05  8.8433691734106815e-05  2.4319455810316444e-05  7.0517837837415144e-05  2.8101370078391096e-05  -3.0128972010343627e-05  7.7766771546755725e-05  5.8917178990247467e-05  8.1323390412218159e-05  6.6504423050676547e-05  6.3401054818466659e-05  4.8143116062517950e-05  5.2517677167487481e-05  5.2604577977916917e-05  2.1715893157531581e-05  -8.4226261387078161e-07  7.2838054386832965e-05  7.3055576046877134e-05  2.9277223217904705e-05  -1.1314509457108849e-05  2.7252697178859900e-05  7.6806635988620908e-05  7.0047219295120422e-05  4.8863380580110920e-05  2.7696083406943055e-05  6.8021105017259298e-05  2.6866825882615043e-05  8.1826353758929958e-05  6.4853034470337159e-05  4.8367343720055883e-05  7.6330801621899864e-05  6.1450247918308891e-05  4.5747408099994256e-05  1.1709810305855156e-04  1.3790403667746643e-04  2.2276899712411993e-05  8.6161921977582839e-05  6.3434126091428204e-06  1.3413150187941184e-04  6.3231788278045409e-05  2.0357848111545269e-05  2.1251483825770962e-05  1.9647009525550769e-05  -3.3003648763361557e-05  4.9823988767980843e-06  3.2350565505632806e-06  4.8949489247520151e-07  1.2269814055894211e-04  1.8079479051024191e-07  3.8924994403792499e-05  2.2597543757362407e-05  7.1102810526416688e-06  1.2056991116355039e-05  5.4499414488938329e-06  1.0090093647535335e-04  7.2792646946872190e-05  3.4131460088965920e-06  -1.6734141555934613e-09  1.8129557265113976e-08  -5.3459846262950767e-06  2.1409017868994090e-05  -6.0078793754557040e-05  -3.9127511124566079e-05  1.4217938222568663e-05  1.7858710155239224e-05  -1.5243738411401051e-05  -5.1364173821354450e-06  6.9537209516097124e-07  2.2210372492079810e-05  1.2683778290209106e-06  4.1270865337934071e-08  1.1605552016680756e-06  4.3375161269898628e-06  2.1326073051167930e-06  1.1050673278970988e-05  -1.9691327465587309e-05  2.9581780780024227e-06  4.7382783440646303e-07  -6.2289806875207775e-05  -5.9845989065305630e-05  -5.9488917653482523e-05  -5.5374637200363920e-05  -5.3508854275435124e-05  -4.8018056033615309e-05  -4.4674675881894200e-05  -4.6762603857824974e-05  1.4026741682800975e-05  -4.7073367009016109e-05  -3.5697687620187793e-05  -3.3333594737295200e-05  -2.2987979673265880e-05  -2.1091012423528493e-05  -8.0827799565323785e-06  1.9699884062605688e-06  1.0098534768560538e-05  2.4777285361992716e-05  2.7907891327182932e-05  4.5970045265913273e-05  4.3677319445897708e-05  6.2835670892844145e-05  5.5388248837943590e-05  7.3899320294539174e-05  3.8768685190644829e-05  4.6284972139497848e-05  1.3903544912971017e-05  3.2003534585366065e-05  8.6005267431264932e-05  9.3323866836562071e-05  7.8411130651008463e-05  9.3821745851373577e-05  1.0964938022127515e-04  1.0628486016806435e-04  8.8302368681129458e-05  9.6823681015996218e-05  7.7391279325300159e-05  8.2912268993591326e-05  1.0019476699378417e-04  8.4181364572024058e-05  9.7861179311338757e-05  8.0805660979682944e-05  9.2033263339457152e-05  7.3778846004110473e-05  7.8416620013514531e-05  6.3587588080355584e-05  6.4437874913092705e-05  5.2440530204163451e-05  5.0837989762007021e-05  4.1284958120733448e-05  3.8190780596362273e-05  3.1254087281236725e-05  2.7681250304408163e-05  2.2560718506891101e-05  1.9042848642485734e-05  2.5088847500683579e-05  1.7861749455816668e-05  5.0330477056303126e-05  1.9277459886876368e-05  6.4080594890436184e-05  1.3728847594218924e-05  1.2214849714319689e-05  3.2926972714662096e-05  1.1419299584158334e-04  1.3962369489421150e-05  1.8641922158422624e-05  6.8226276800636970e-05  3.5284202458048573e-05  -1.1946859851221788e-05  9.2555953181365960e-06  7.7739483900686654e-06  5.6448546521244004e-05  6.7036344444293210e-05  4.4092000178672754e-05  2.3968246875655222e-05  2.0263486285638665e-05  7.6193334676671149e-05  1.2583124840933570e-05  9.7671773306649751e-06  1.5253136173615078e-05  1.1727606061451009e-05  -5.9689861218490901e-05  -5.4868377566108556e-05  -5.2927289122658869e-05  1.2212793876371919e-04  1.2345850765460340e-04  1.3483656714111420e-04  -4.7250338384273337e-05  -4.3511185161361792e-05  1.0763168791081184e-06  9.7096093478754885e-06  5.8843203664698976e-06  7.2376460619705245e-06  4.1741482358050702e-06  4.8937019796122226e-06  2.6605646970971624e-06  3.4774889548491642e-06  5.8791284760014159e-06  4.5332858410324685e-06  7.3379320662921151e-06  6.3157508747223743e-06  4.1093301412388385e-06  6.0760292018800929e-06  3.9423190387892350e-06  5.8998225286755581e-06  3.7403789608125368e-06  5.5406298603363689e-06  3.4536438087393496e-06  4.9290653657821337e-06  3.0497682528956692e-06  4.1588651878740026e-06  6.5023390224357543e-06  5.6332201703925081e-06  3.5765531494435568e-06  5.1366213548852666e-06  3.2017420635116752e-06  4.6545772074348069e-06  7.0463492275568858e-06  6.5985755634300388e-06  9.6969424732180175e-06  4.3629127188597816e-06  9.3619659191595954e-06  1.3711883504544760e-05  1.3146859012074808e-05  2.0130257042555428e-05  8.4365592813805971e-06  1.7504134590139757e-05  2.5730092698526382e-05  2.1165688457560364e-06  8.4526927262822200e-06  8.7084730782599685e-06  2.4016230574694787e-06  1.9282107545701305e-06  1.9619181448188170e-05  9.3029692909928386e-06  8.6500118038599984e-06  1.1375644483251807e-05  1.4092005324254870e-05  2.1417955654163468e-05  3.1299476636615979e-05  3.6472126601449924e-05  4.4056144077003352e-05  9.6739788908939860e-06  1.1997342826687200e-05  4.8663219034640229e-05  5.9691142598502445e-05  4.9610450751130188e-05  6.5930781657810500e-05  7.7801105064884563e-05  8.3216082734560248e-05  9.5275115721192433e-05  1.0174975189208733e-04  8.3923778444067591e-05  9.8633352884284703e-05  1.1703130695867792e-04  1.0938707345198050e-04  1.2482100938146834e-04  1.1478039963653160e-04  9.8587804958752374e-05  1.0036479876403705e-04  1.1219956379526312e-04  9.6049453463763841e-05  1.0222157529994726e-04  8.5566001795721287e-05  8.4940879617305016e-05  7.0224437982683037e-05  6.4397042257364248e-05  6.8711479157709563e-05  5.2368292625059266e-05  4.2273736522587798e-05  8.4529048296625762e-05  3.4452566078069112e-05  2.1439867749564037e-05  4.2829763749872786e-05  1.8340035164694934e-05  5.0666716910212943e-05  1.0411182981455936e-04  7.9047718678207918e-05  5.1804593296688671e-06  3.5130851072317848e-06  1.0183706320060420e-05  -1.2710496905725211e-05  1.1388332436678802e-06  1.9997771763249990e-06  1.4090095083649351e-05  1.7831947229163269e-06  -4.7758665758534062e-05  1.5857803168874247e-05  2.3966027046052695e-05  1.8980971229521464e-05  2.7636462533361165e-05  3.7950661040011542e-05  3.0510955364404101e-05  -6.8798070697083371e-06  2.8968091795894295e-05  6.2289622064090464e-05  4.8390824820236745e-05  3.4696999604251038e-05  4.7902667705694815e-05  1.3100865326219209e-04  1.3619160168423542e-04  1.3925236677009224e-04  2.2217711654859294e-05  1.7872369970370015e-05  -3.6084733368567929e-05  1.2993071793174064e-05  6.2615875998392291e-06  4.1769472156929649e-06  1.3417651786238767e-04  1.1915857522941233e-04  -3.8774716835401291e-05  -3.4270427205196446e-05  1.7103806160702262e-06  5.7414620627148982e-06  6.6212046444076589e-06  4.0033812023827520e-05  5.0382067403999374e-05  1.3570161010992730e-05  5.2326776369971993e-05  3.2145536118688445e-06  4.0033683217746600e-05  7.9528893474024951e-05  6.5400836582357510e-05  6.8906803139137573e-05  6.1348300132450547e-06  1.4598213950550804e-06  5.3850518465804504e-07  6.5524475481657892e-06  1.6129827912651793e-05  3.4327853916891012e-05  4.2423715840698360e-05  -1.4102397923125321e-05  1.4518816233107255e-06  9.5170289985450209e-06  3.7813976549838165e-05  1.2514833631554982e-05  1.5232169387626454e-05  1.5569850454833031e-05  1.4407973146686739e-05  1.7681061096983649e-05  1.7324394743498684e-05  1.4279321794067508e-04  1.3939192819757308e-04  1.3897683268714284e-04  4.3543928117420643e-07  -4.5391589557061400e-06  5.0525359295626259e-05  5.3155262147055991e-05  1.1512957153894568e-06  1.8750655724091689e-06  1.1967220948451233e-06  1.8373734299115706e-06  1.7902816913201177e-05  2.1795842551771564e-05  3.3260363606491531e-05  1.4241826871698915e-04  1.3572975515631155e-04  4.6257790313767413e-05  2.8511267055692303e-05  3.2043358049612689e-05  2.5060358279749836e-05  -5.2998409698415327e-05  -4.7382215832697317e-05  9.5337110978121411e-07  8.7790987018450937e-05  1.0442463795099065e-04  -1.6973480207660049e-05  -2.2102104282149576e-06  3.6532560660997626e-06  9.2186119082158361e-05  6.1273690099407287e-05  1.8337741369041784e-05  7.1773221096559211e-05  6.7194435984353513e-05  5.0454007697225603e-05  -3.6050227249642940e-05  5.3156297932962579e-05  9.9084871218852556e-06  8.6266154273794749e-06  1.3126261408170375e-04  1.2653073946297493e-04  1.0899312903805016e-04  2.0341179314459796e-05  -5.3249924595732047e-05  3.4422633900989910e-05  8.1961406564268508e-05  9.6465648487821282e-05  1.1297810317566460e-04  1.0255616721350438e-04  1.1683056629833440e-04  1.2712123317957510e-04  1.2737828701217719e-04  7.3758187540038289e-05  5.9197451114833656e-05  6.7728356451920185e-05  5.2229119526929144e-05  5.7017038870653840e-05  3.7171747810149823e-05  1.1319208107341445e-05  1.5271589578461271e-05  1.5755938913510366e-05  9.8033989097677746e-06  1.4227930444893753e-04  1.1148854321543676e-04  3.5260295750103970e-05  3.5860140349806144e-05  4.4233828587725852e-05  3.0790010963930124e-05  3.4498591791771268e-05  2.2964522590687723e-05  2.3688120304527578e-05  2.9842385356846104e-05  1.3786242197606516e-04  1.3213271374609234e-04  1.1218348704351969e-06  1.5883045611518150e-06  2.7155821355679716e-06  4.0705709346877126e-05  4.3904432624422621e-06  2.6356586289821320e-06  4.8216265491785751e-06  8.1520940791686983e-07  1.1156457942420143e-06  5.3092866723255839e-07  8.8725228408956874e-07  -3.5559094892383166e-05  1.2595232193507738e-05  1.6654481392368432e-05  1.3602270141880980e-05  1.8410695668677302e-05  1.1592789481352029e-04  1.3768386796787697e-05  1.0166021259742153e-04  8.8644383359733878e-05  9.3501652969675263e-05  7.0094103525985849e-05  -1.9470073365914789e-05  2.9101316801854219e-06  4.7160333308888567e-06  1.3905965724758508e-05  1.7912941158572223e-05  1.5490346265809993e-05  1.3949653093409548e-04  1.3070390359397682e-04  1.3030770879561736e-04  1.1946762435858561e-04  1.1515475112668604e-04  1.0044076716929156e-04  8.4754576395928676e-05  7.7378953749945533e-05  -1.2639651983953251e-05  -1.5352074886190024e-05  2.9682397452266805e-05  2.4946201326301880e-05  1.7730396024248284e-05  1.0552014950580396e-04  5.9074859095796302e-07  9.2327525138088571e-06  1.2183184321422363e-05  2.2244671636790498e-05  3.5756830952537845e-05  1.9271820018762687e-05  3.7726235581672725e-05  8.4100583586616743e-06  1.7965596503012324e-05  8.9608279955222507e-06  -1.7119670020136073e-05  -2.4255734883342331e-05  1.2101432373575679e-06  4.1071686582757404e-05  2.7334304016291491e-05  -2.0002797128125039e-05  -1.0352562378534343e-05  -1.9844191002766251e-05  1.2153745936726520e-05  9.2738441560054927e-06  1.1395092672553448e-04  8.0234527025596881e-06  7.2798310603422312e-05  9.5230198966477457e-05  1.7203956709561739e-05  -2.0511886861957903e-05  2.0094686663698806e-05  1.8658764768040779e-05  1.6884931188335367e-05  1.5948977189462158e-05  1.3567277940214967e-05  2.6488726470347249e-05  1.7576817158163956e-05  3.8735132648748140e-05  4.1295450094760735e-05  6.5892851436184251e-05  -1.0368733089035541e