<?xml version="1.0"?>
<VTKFile type="UnstructuredGrid"  version="0.1"  >
<UnstructuredGrid>
<Piece  NumberOfPoints="1259" NumberOfCells="2420">
<Points>
<DataArray  type="Float64"  NumberOfComponents="3"  format="ascii">0 0 0  0 1 0  1 1 0  1 0 0  1.1 -0.1 0  -0.1 -0.1 0  1.1 1.1 0  -0.1 1.1 0  0.4968376882020379 0.5034311964161017 0  0.6116229093980403 0.7382322685420046 0  0 0.9499999999997918 0  0 0.8999999999995836 0  0 0.8499999999996529 0  0 0.7999999999999998 0  0 0.7500000000003466 0  0 0.7000000000006934 0  0 0.6500000000010401 0  0 0.6000000000013869 0  0 0.5500000000017335 0  0 0.5000000000020587 0  0 0.4500000000018723 0  0 0.4000000000016644 0  0 0.3500000000014564 0  0 0.3000000000012483 0  0 0.2500000000010403 0  0 0.2000000000008322 0  0 0.1500000000006241 0  0 0.100000000000416 0  0 0.05000000000020799 0  0.04999999999989965 0 0  0.09999999999981467 0 0  0.1499999999997036 0 0  0.1999999999995579 0 0  0.2499999999994121 0 0  0.2999999999992664 0 0  0.3499999999991206 0 0  0.3999999999989749 0 0  0.4499999999988292 0 0  0.4999999999986943 0 0  0.5499999999988151 0 0  0.5999999999989468 0 0  0.6499999999990784 0 0  0.69999999999921 0 0  0.7499999999993417 0 0  0.7999999999994734 0 0  0.8499999999996051 0 0  0.8999999999997368 0 0  0.9499999999998684 0 0  1 0.04999999999989965 0  1 0.09999999999981467 0  1 0.1499999999997036 0  1 0.1999999999995579 0  1 0.2499999999994121 0  1 0.2999999999992664 0  1 0.3499999999991206 0  1 0.3999999999989749 0  1 0.4499999999988292 0  1 0.4999999999986943 0  1 0.5499999999988151 0  1 0.5999999999989468 0  1 0.6499999999990784 0  1 0.69999999999921 0  1 0.7499999999993417 0  1 0.7999999999994734 0  1 0.8499999999996051 0  1 0.8999999999997368 0  1 0.9499999999998684 0  0.9499999999997918 1 0  0.8999999999995836 1 0  0.8499999999996529 1 0  0.7999999999999998 1 0  0.7500000000003466 1 0  0.7000000000006934 1 0  0.6500000000010401 1 0  0.6000000000013869 1 0  0.5500000000017335 1 0  0.5000000000020587 1 0  0.4500000000018723 1 0  0.4000000000016644 1 0  0.3500000000014564 1 0  0.3000000000012483 1 0  0.2500000000010403 1 0  0.2000000000008322 1 0  0.1500000000006241 1 0  0.100000000000416 1 0  0.05000000000020799 1 0  -0.1 1.05000000000004 0  -0.1 1.000000000000079 0  -0.1 0.9500000000001624 0  -0.1 0.9000000000003032 0  -0.1 0.850000000000444 0  -0.1 0.8000000000005848 0  -0.1 0.7500000000007256 0  -0.1 0.7000000000008665 0  -0.1 0.6500000000010508 0  -0.1 0.6000000000012352 0  -0.1 0.5500000000014196 0  -0.1 0.500000000001539 0  -0.1 0.4500000000014195 0  -0.1 0.4000000000013 0  -0.1 0.3500000000011588 0  -0.1 0.3000000000010178 0  -0.1 0.2500000000008986 0  -0.1 0.2000000000007579 0  -0.1 0.1500000000006174 0  -0.1 0.1000000000005272 0  -0.1 0.05000000000040083 0  -0.1 2.671196597248127e-13 0  -0.1 -0.0499999999998666 0  -0.0500000000000906 -0.1 0  -1.730560139634463e-13 -0.1 0  0.04999999999975802 -0.1 0  0.09999999999961506 -0.1 0  0.1499999999994613 -0.1 0  0.199999999999302 -0.1 0  0.2499999999991446 -0.1 0  0.2999999999990088 -0.1 0  0.3499999999988296 -0.1 0  0.3999999999986936 -0.1 0  0.4499999999985143 -0.1 0  0.4999999999984002 -0.1 0  0.5499999999985247 -0.1 0  0.5999999999986493 -0.1 0  0.6499999999987955 -0.1 0  0.6999999999989417 -0.1 0  0.7499999999990659 -0.1 0  0.7999999999992116 -0.1 0  0.8499999999993573 -0.1 0  0.8999999999994526 -0.1 0  0.949999999999584 -0.1 0  0.9999999999997226 -0.1 0  1.049999999999861 -0.1 0  1.1 -0.0500000000000906 0  1.1 -1.730560139634463e-13 0  1.1 0.04999999999975802 0  1.1 0.09999999999961506 0  1.1 0.1499999999994613 0  1.1 0.199999999999302 0  1.1 0.2499999999991446 0  1.1 0.2999999999990088 0  1.1 0.3499999999988296 0  1.1 0.3999999999986936 0  1.1 0.4499999999985143 0  1.1 0.4999999999984002 0  1.1 0.5499999999985247 0  1.1 0.5999999999986493 0  1.1 0.6499999999987955 0  1.1 0.6999999999989417 0  1.1 0.7499999999990659 0  1.1 0.7999999999992116 0  1.1 0.8499999999993573 0  1.1 0.8999999999994526 0  1.1 0.949999999999584 0  1.1 0.9999999999997226 0  1.1 1.049999999999861 0  1.05000000000004 1.1 0  1.000000000000079 1.1 0  0.9500000000001624 1.1 0  0.9000000000003032 1.1 0  0.850000000000444 1.1 0  0.8000000000005848 1.1 0  0.7500000000007256 1.1 0  0.7000000000008665 1.1 0  0.6500000000010508 1.1 0  0.6000000000012352 1.1 0  0.5500000000014196 1.1 0  0.500000000001539 1.1 0  0.4500000000014195 1.1 0  0.4000000000013 1.1 0  0.3500000000011588 1.1 0  0.3000000000010178 1.1 0  0.2500000000008986 1.1 0  0.2000000000007579 1.1 0  0.1500000000006174 1.1 0  0.1000000000005272 1.1 0  0.05000000000040083 1.1 0  2.671196597248127e-13 1.1 0  -0.0499999999998666 1.1 0  0.6343364784226431 0.7278468405873864 0  0.6554186157489439 0.7149041919736996 0  0.67442908204425 0.6991927400552336 0  0.6908671752476774 0.681179241547634 0  0.704466661877699 0.6611370270359554 0  0.7151683713345947 0.6395313776687607 0  0.7234652398490037 0.6169926728735382 0  0.7287723973204497 0.5934807449801651 0  0.7320973042025124 0.5694835268977293 0  0.7336930688878164 0.5451946940022181 0  0.7334723047367542 0.5207348545831851 0  0.7318463680695269 0.4962199683126609 0  0.7288025637012281 0.4717683252965199 0  0.7243742384971326 0.4475023965870181 0  0.7185323550313224 0.4235317982750136 0  0.7112868273822509 0.400021866651345 0  0.7026044519511248 0.3771020367731168 0  0.6923929833952714 0.3549430157733322 0  0.6806352548972684 0.3336935787118124 0  0.6670036495287497 0.3137292379529885 0  0.6515065058660205 0.2952744944688824 0  0.6340366581336163 0.2786618622771861 0  0.6142520716201616 0.2649131145612905 0  0.5927473594480599 0.2538279131650402 0  0.569570347710451 0.2461154721783451 0  0.5453010723144101 0.2421210048902424 0  0.5205286895610592 0.2414401735245423 0  0.4957384183996045 0.244125538103649 0  0.471173533176011 0.2496965578375515 0  0.447106986399697 0.2577194258286372 0  0.4237449686209587 0.2680193120279215 0  0.4012101450346828 0.2802841880352977 0  0.3796788537430679 0.2943132405263413 0  0.3593574205424126 0.3099063262240428 0  0.3401235288533506 0.3266535507834969 0  0.3226460526595958 0.3446801627618391 0  0.3064752235659102 0.3633244758359035 0  0.2917751518401002 0.3825035861509741 0  0.278509963925903 0.401963812891396 0  0.2666266950644146 0.4215747164902887 0  0.2561770831064115 0.441411629108184 0  0.2473871323053041 0.4615983679434983 0  0.2409010080264732 0.4822736984577546 0  0.2379157766709423 0.5033345545295911 0  0.2379512645471753 0.5235818636905584 0  0.2406665724997588 0.5432593608742983 0  0.2469414445483747 0.5632846546494058 0  0.2557797554254039 0.5828925327721313 0  0.2672570717810444 0.6014767446179347 0  0.2805624019681339 0.6192518515491006 0  0.295180752187746 0.6366270937003119 0  0.3111067237929904 0.6536556842465199 0  0.3284230111905937 0.6701310854660427 0  0.3472606255477426 0.6858640106431617 0  0.3675959009961568 0.7005366104619999 0  0.3892240247496156 0.7139060431099851 0  0.4120173695347927 0.7257155314587272 0  0.4358675972926841 0.7357594879090217 0  0.4605470044347694 0.743798114629514 0  0.4858024919262445 0.7492577710490419 0  0.5114638739502189 0.7521111408245247 0  0.5371271221609895 0.752505506865029 0  0.5625374765538799 0.7503366213562158 0  0.5874305052440086 0.7455794887898505 0  0.3030844205562133 0.6086216645125442 0  0.6297039899136407 0.3016219792098132 0  0.6677159352905871 0.6787108874139757 0  0.2904381472863112 0.4257275615023119 0  0.6784590362584118 0.3736609191707786 0  0.5119809721299996 0.2641712328701206 0  0.7067296075324435 0.5802520739566636 0  0.3505447805522159 0.658613026011781 0  0.4094694387035277 0.7001197690883513 0  0.4786297548342121 0.7210657294436003 0  0.5935553051799841 0.720344538827867 0  0.443310755134899 0.2831700583445398 0  0.7087975909185453 0.5075906672928918 0  0.7018179161354767 0.4392531304381209 0  0.2586403997891179 0.4809921217363646 0  0.3306328136331638 0.3699804200597648 0  0.3825729770195392 0.3207646744857996 0  0.267027182113329 0.5644727699418096 0  0.5765462685484158 0.2699149927107154 0  0.5243099487117681 0.7295579846111303 0  0.6998480085486956 0.6221747221563948 0  0.6584195519239867 0.3348992446501201 0  0.6352671406745553 0.6992743875436112 0  0.2550480446367814 0.5163710812922411 0  0.2787281096707024 0.4446938395730589 0  0.3010294617748163 0.4500924599161393 0  0.3136509422236458 0.4312467698864404 0  0.3231238782665313 0.4571434883448013 0  0.3359621588415397 0.437942068829849 0  0.3476644294734437 0.4657039575477294 0  0.3559952739107122 0.4383806101164396 0  0.3320834439534193 0.4872526026595968 0  0.3585571951734207 0.4974920238697715 0  0.3398082984254255 0.520732690846179 0  0.3681692311714235 0.5334235902174315 0  0.3126750121002624 0.5058825451694452 0  0.3196341610100577 0.5403018855192209 0  0.3883674145376058 0.5061758698651878 0  0.3980893420570169 0.5467660361975182 0  0.3737663764607592 0.5788297676887288 0  0.4044375617455696 0.5952055452138006 0  0.2971435099796761 0.5281173062147739 0  0.300621156102724 0.5566444195265929 0  0.3199946718466809 0.5698313334647712 0  0.4326224192054703 0.5622145843136879 0  0.4367325906631801 0.6116876129054249 0  0.4127582663575873 0.6258455722872945 0  0.4431704621083652 0.6485175356139317 0  0.4694307497690899 0.6280805450541643 0  0.4782499324682584 0.6571386698082593 0  0.5035775669579191 0.6437981915387685 0  0.4504214724623104 0.6792128512312421 0  0.2887071351636104 0.4684115325753374 0  0.3249541934130927 0.4128268969682632 0  0.5011777098160416 0.5956119630548508 0  0.5370960027997176 0.6134872948585047 0  0.5357433652467894 0.6598930742179407 0  0.5718983156240655 0.6394088585074049 0  0.5703303711005379 0.5897403965476977 0  0.603699504296634 0.6068088516595926 0  0.6027583344600236 0.5665353476261737 0  0.633789292064343 0.5829100804498972 0  0.6387516744592528 0.5443516754173411 0  0.6028989344298896 0.5264753758821691 0  0.6401287235517973 0.5054323278418286 0  0.6027223553499367 0.4861034713381467 0  0.6384351749646967 0.4620487142741944 0  0.602845710
[...]
<PointData  Scalars="v"> 
<DataArray  type="Float64"  Name="v"  format="ascii">0.0000000000000000e+00  0.0000000000000000e+00  0.0000000000000000e+00  0.0000000000000000e+00  0.0000000000000000e+00  0.0000000000000000e+00  0.0000000000000000e+00  0.0000000000000000e+00  6.9934253051295140e-05  2.3420370470392915e-05  0.0000000000000000e+00  0.0000000000000000e+00  0.0000000000000000e+00  0.0000000000000000e+00  0.0000000000000000e+00  0.0000000000000000e+00  0.0000000000000000e+00  0.0000000000000000e+00  0.0000000000000000e+00  0.0000000000000000e+00  0.0000000000000000e+00  0.0000000000000000e+00  0.0000000000000000e+00  0.0000000000000000e+00  0.0000000000000000e+00  0.0000000000000000e+00  0.0000000000000000e+00  0.0000000000000000e+00  0.0000000000000000e+00  0.0000000000000000e+00  0.0000000000000000e+00  0.0000000000000000e+00  0.0000000000000000e+00  0.0000000000000000e+00  0.0000000000000000e+00  0.0000000000000000e+00  0.0000000000000000e+00  0.0000000000000000e+00  0.0000000000000000e+00  0.0000000000000000e+00  0.0000000000000000e+00  0.0000000000000000e+00  0.0000000000000000e+00  0.0000000000000000e+00  0.0000000000000000e+00  0.0000000000000000e+00  0.0000000000000000e+00  0.0000000000000000e+00  0.0000000000000000e+00  0.0000000000000000e+00  0.0000000000000000e+00  0.0000000000000000e+00  0.0000000000000000e+00  0.0000000000000000e+00  0.0000000000000000e+00  0.0000000000000000e+00  0.0000000000000000e+00  0.0000000000000000e+00  0.0000000000000000e+00  0.0000000000000000e+00  0.0000000000000000e+00  0.0000000000000000e+00  0.0000000000000000e+00  0.0000000000000000e+00  0.0000000000000000e+00  0.0000000000000000e+00  0.0000000000000000e+00  0.0000000000000000e+00  0.0000000000000000e+00  0.0000000000000000e+00  0.0000000000000000e+00  0.0000000000000000e+00  0.0000000000000000e+00  0.0000000000000000e+00  0.0000000000000000e+00  0.0000000000000000e+00  0.0000000000000000e+00  0.0000000000000000e+00  0.0000000000000000e+00  0.0000000000000000e+00  0.0000000000000000e+00  0.0000000000000000e+00  0.0000000000000000e+00  0.0000000000000000e+00  0.0000000000000000e+00  0.0000000000000000e+00  0.0000000000000000e+00  0.0000000000000000e+00  0.0000000000000000e+00  0.0000000000000000e+00  0.0000000000000000e+00  0.0000000000000000e+00  0.0000000000000000e+00  0.0000000000000000e+00  0.0000000000000000e+00  0.0000000000000000e+00  0.0000000000000000e+00  0.0000000000000000e+00  0.0000000000000000e+00  0.0000000000000000e+00  0.0000000000000000e+00  0.0000000000000000e+00  0.0000000000000000e+00  0.0000000000000000e+00  0.0000000000000000e+00  0.0000000000000000e+00  0.0000000000000000e+00  0.0000000000000000e+00  0.0000000000000000e+00  0.0000000000000000e+00  0.0000000000000000e+00  0.0000000000000000e+00  0.0000000000000000e+00  0.0000000000000000e+00  0.0000000000000000e+00  0.0000000000000000e+00  0.0000000000000000e+00  0.0000000000000000e+00  0.0000000000000000e+00  0.0000000000000000e+00  0.0000000000000000e+00  0.0000000000000000e+00  0.0000000000000000e+00  0.0000000000000000e+00  0.0000000000000000e+00  0.0000000000000000e+00  0.0000000000000000e+00  0.0000000000000000e+00  0.0000000000000000e+00  0.0000000000000000e+00  0.0000000000000000e+00  0.0000000000000000e+00  0.0000000000000000e+00  0.0000000000000000e+00  0.0000000000000000e+00  0.0000000000000000e+00  0.0000000000000000e+00  0.0000000000000000e+00  0.0000000000000000e+00  0.0000000000000000e+00  0.0000000000000000e+00  0.0000000000000000e+00  0.0000000000000000e+00  0.0000000000000000e+00  0.0000000000000000e+00  0.0000000000000000e+00  0.0000000000000000e+00  0.0000000000000000e+00  0.0000000000000000e+00  0.0000000000000000e+00  0.0000000000000000e+00  0.0000000000000000e+00  0.0000000000000000e+00  0.0000000000000000e+00  0.0000000000000000e+00  0.0000000000000000e+00  0.0000000000000000e+00  0.0000000000000000e+00  0.0000000000000000e+00  0.0000000000000000e+00  0.0000000000000000e+00  0.0000000000000000e+00  0.0000000000000000e+00  0.0000000000000000e+00  0.0000000000000000e+00  0.0000000000000000e+00  0.0000000000000000e+00  0.0000000000000000e+00  0.0000000000000000e+00  0.0000000000000000e+00  0.0000000000000000e+00  0.0000000000000000e+00  0.0000000000000000e+00  0.0000000000000000e+00  0.0000000000000000e+00  0.0000000000000000e+00  0.0000000000000000e+00  0.0000000000000000e+00  2.3804781509111905e-05  2.5901369391124278e-05  2.9949439347434838e-05  3.4971183511992387e-05  4.1376508870093929e-05  4.8638384433196517e-05  5.7069860616971898e-05  6.5624218013395159e-05  7.3740759291979831e-05  8.1849998114776927e-05  8.8828963938097376e-05  9.4883342358434116e-05  9.9443244389932380e-05  1.0155408625195830e-04  1.0211937382978106e-04  1.0125190485821129e-04  9.8606691623417524e-05  9.4808806607313606e-05  9.0067527402081876e-05  8.4775235970189597e-05  7.9392177845565411e-05  7.4494718603274740e-05  7.0279887201918996e-05  6.7493779850978417e-05  6.6004369229857301e-05  6.5947639512262980e-05  6.7598405219420477e-05  7.0409912524313013e-05  7.3980205247824738e-05  7.8115971851442699e-05  8.2281822316436766e-05  8.5988650748078176e-05  8.8647976802235635e-05  9.0011182743340469e-05  9.0867672101592597e-05  8.8878959717803274e-05  8.6325994974667988e-05  8.2607429543774617e-05  7.7952411518511516e-05  7.2810673226299052e-05  6.7683223186992077e-05  6.2763844392799194e-05  5.8567996885241704e-05  5.5056222301555083e-05  5.2966681424345180e-05  5.1192312337510775e-05  5.0517354205443091e-05  5.1119827533550308e-05  5.2281162674403221e-05  5.3522750104815494e-05  5.4733014108568764e-05  5.5846944383076860e-05  5.6450688123983809e-05  5.6130741431674424e-05  5.4935830972410417e-05  5.2856572559472182e-05  4.9915938878523943e-05  4.6197556619384988e-05  4.1940875910853738e-05  3.7539687281107291e-05  3.3228181237134202e-05  2.9403447981271734e-05  2.6305645818191493e-05  2.4159499924431737e-05  4.8590594387133521e-05  6.8814389724509346e-05  3.0636971833183903e-05  6.5368742266588554e-05  8.3511793688026509e-05  6.2559173294251868e-05  5.9726394988849392e-05  4.9890230790415870e-05  4.5972131222434048e-05  3.6638513894415273e-05  2.4344233842334876e-05  7.1035905265673526e-05  7.8456977516656808e-05  8.7643039432387356e-05  5.4082811793928637e-05  7.5350097636324402e-05  7.7213842911758994e-05  4.6849972223843788e-05  6.1057953572443672e-05  3.0306307294998337e-05  4.7329152949306961e-05  7.7044810252809633e-05  2.5794416283523451e-05  4.8927956181587814e-05  6.1251864720955105e-05  6.1810780507829232e-05  6.5712062244587750e-05  6.3904350760837032e-05  6.7575104119296290e-05  6.6074481004048364e-05  6.9781102914048717e-05  6.1779294386712862e-05  6.3464247292711198e-05  5.9037354072394950e-05  6.0372866448841796e-05  5.6898182431922416e-05  5.4431469376423086e-05  6.4865877360626245e-05  6.0938400798647070e-05  5.6349472567019498e-05  5.6166227267906911e-05  5.2166845380798854e-05  5.0256866315689752e-05  5.1838375211471377e-05  6.0571932513979907e-05  5.4343247371028234e-05  5.2986939306108945e-05  4.9397209482315996e-05  5.1238641747661922e-05  4.6311747922152594e-05  4.6884353740273185e-05  4.4647628314419029e-05  5.7758478195782774e-05  6.9029003473599195e-05  5.5431015310114374e-05  5.0985645270634093e-05  4.1607243275166162e-05  4.3746329103383018e-05  5.5303670166779339e-05  5.0819002755001450e-05  6.0920420223647789e-05  5.7330751593319891e-05  6.7178132647793723e-05  6.9448599748865835e-05  7.5285889706996954e-05  7.5988462826964082e-05  8.0601843010644022e-05  7.9426739321941539e-05  8.1212113225763978e-05  7.9707786243006683e-05  7.7967845648205209e-05  7.6681601515703410e-05  7.6505899270443742e-05  7.3826301107801190e-05  7.5249636281516784e-05  7.2639251429041575e-05  7.2520709751567919e-05  7.4287963680402867e-05  7.5807666494333805e-05  4.7066705305053700e-05  7.6094941803936183e-05  7.5677636342055723e-05  7.5899251331834413e-05  7.4510817732165960e-05  7.3513753544001719e-05  6.2893629113564895e-05  7.0769543480374948e-05  6.8546384197955911e-05  7.9136568490328863e-05  7.5468199201959320e-05  7.9674976786854780e-05  8.1890903113420030e-05  3.5260572443440507e-05  3.4213899964668177e-05  4.8321729232431859e-05  7.4370197501430989e-05  7.5221579500055246e-05  8.1906078317456170e-05  8.1764078189373865e-05  7.3304979064978343e-05  6.7145452342116504e-05  6.9109904201671021e-05  6.6531417590501055e-05  6.3247305481159722e-05  7.0250977288153804e-05  6.5157116604561672e-05  7.1322828610886929e-05  7.2414602042862301e-05  6.7925556018410876e-05  4.1277119491325449e-05  3.2838613014333590e-05  3.8021853358377303e-05  4.2053021304516648e-05  5.3318937362796974e-05  4.9690748591196207e-05  5.4271693884308453e-05  7.5986938954306085e-05  3.9817968683711683e-05  3.9747159237247300e-05  5.8215668431495766e-05  7.5758590087483395e-05  7.6224488243146089e-05  4.8770447326007889e-05  5.3304932638206013e-05  5.0781113481311269e-05  5.2642266990010844e-05  5.0748760056151937e-05  7.6402230162778530e-05  5.9687074298036859e-05  5.5543107345884413e-05  5.1775808656647258e-05  4.7648931027172880e-05  6.6287438859689445e-05  4.8311102438968575e-05  4.6932817702955603e-05  6.9300458508199294e-05  7.7246262323091728e-05  7.3948007794802283e-05  7.2300334266241716e-05  6.9980607200906516e-05  6.9256735258630268e-05  7.8132634232207839e-05  4.9662538262190448e-05  5.0099526374081139e-05  7.5929715504237643e-05  4.9959698772668655e-05  7.2850404941748924e-05  7.3684559006746811e-05  4.9460698987121226e-05  4.3379409337974831e-05  7.5902290822763813e-05  4.8253880632581899e-05  4.0244781524179454e-05  8.3823688973977425e-05  7.3915050354129638e-05  8.7557426080067430e-05  3.3420931950824280e-05  8.6291061587900108e-05  8.3424171619200235e-05  2.7495669895525821e-05  6.7542580548116658e-05  3.4348797326920366e-05  6.5111664454470226e-05  2.5388754874362991e-05  2.9457862303825979e-05  5.7541199185847893e-05  8.0728361071226307e-05  7.8858025821328416e-05  6.0850794212480404e-05  5.0261625423583066e-05  5.2197429560223365e-05  7.3505671246820966e-05  2.4054393798671329e-05  4.5199481730958020e-05  5.8499214932197023e-05  5.9948607400393223e-05  7.2744155584406869e-05  7.0401153087834692e-05  6.5386205380158193e-05  7.6122344407690600e-05  5.4381955266737857e-05  4.5333715449197419e-05  3.9868743699665245e-05  8.6758431181613091e-05  3.5451464954477510e-05  3.0944356685709940e-05  7.5474251704934391e-05  6.0281686283156471e-05  5.0930205479910351e-05  7.2053219246409679e-05  6.4412705607202678e-05  6.2523150164436560e-05  4.8164333426538585e-05  7.1806347717412436e-05  7.5005200050871286e-05  7.3152899836963914e-05  7.1676533862310448e-05  6.2731392821834488e-05  8.1308662426490995e-05  3.6488802238770145e-05  3.2710323742243717e-05  6.2962436126118629e-05  2.9442903400522501e-05  6.9883408461485631e-05  7.4081887945576954e-05  7.2835924094214225e-05  2.7419467293382354e-05  7.3884475880395229e-05  3.8286347347098274e-05  3.1698883039366753e-05  6.4783683906136699e-05  6.9446769430706051e-05  7.3753624668586250e-05  7.4940643686847663e-05  6.8012341719350257e-05  8.3579922917349973e-05  8.2151986493784928e-05  2.8323631616696777e-05  3.5152814091351878e-05  4.9979052652214454e-05  6.7719253417906770e-05  5.4521020909537972e-05  4.8902067959549331e-05  6.2956354291120582e-05  2.8266764896596643e-05  6.3325235110500046e-05  6.8020505951981065e-05  7.4912237334923392e-05  5.0172321971737940e-05  6.5400316856438064e-05  6.6058719412067499e-05  5.2098608714672948e-05  7.0142890558358848e-05  5.0935900449854056e-05  5.2720479577276962e-05  7.6713267015762510e-05  4.7739658728015289e-05  5.6634761894899689e-05  8.3302185978225126e-05  7.6132940620891082e-05  4.7020411428851831e-05  7.5532554913014188e-05  6.7416876516968076e-05  7.5805208053406544e-05  4.2694964881746402e-05  4.7196549782537509e-05  4.9015220673922668e-05  7.5577560326996077e-05  7.7615995598156957e-05  4.2766490619891742e-05  6.7340396589816680e-05  7.9844402230665892e-05  7.2066442573054875e-05  3.8648682958839655e-05  6.2925275872359460e-05  3.9749270034110261e-05  7.2557086079322574e-05  3.6429922577736767e-05  7.5033713180929092e-05  8.1194868370694289e-05  4.7960742019706402e-05  4.2351010597845397e-05  7.5906378096847628e-05  5.0041872101647318e-05  5.3273154437039650e-05  9.8785526524986897e-05  1.0025144690748965e-04  6.0908720301908939e-05  9.0992139262184967e-05  3.3804744903448308e-05  6.0937122628125925e-05  2.4924554507414937e-05  7.9340110932428576e-05  8.5199507201756176e-05  1.0913159453917093e-04  5.2274400088788171e-05  8.8628388688051653e-05  4.9288895872767849e-05  1.5197576666168424e-05  6.8694395877439652e-05  1.5358305685539779e-05  5.6093484263773321e-05  1.6700766038778722e-05  3.6873030283534311e-05  8.9296847616382193e-06  5.8293108769647234e-06  2.6165265206482434e-05  1.1416564303911725e-04  1.0379326793274443e-05  7.5015173685297819e-05  7.1096555358768845e-05  9.6331491405758854e-05  2.7066693298910586e-06  1.6094548694108549e-05  6.7373044862178608e-05  8.7151366190496765e-06  2.1174326724497129e-05  2.7991889563038167e-05  5.4722627329019707e-05  3.6724781595474624e-06  1.1053498528728328e-04  5.3857689395990126e-06  1.5845959296168402e-05  1.9680039802738279e-05  3.3480083867775929e-05  2.5695197227207700e-05  5.8319042935280448e-05  1.7352446618935854e-05  1.3680474334528347e-05  1.9914523910926191e-05  1.8357235554197899e-05  6.5809274072583247e-06  1.0206966587223230e-05  1.9921509782338675e-05  2.1147229856741312e-06  1.1333411848012127e-05  2.1072963029602668e-05  6.1772136251123527e-06  9.9389670831776823e-06  5.5787878008667093e-05  5.3344142698678553e-05  5.6579825983569073e-05  5.0113167650890762e-05  4.6062091841921852e-05  4.2969228117651675e-05  4.6719005004440599e-05  3.9389013706361409e-05  4.3195317987127476e-05  3.4806945066594683e-05  3.9118437429380601e-05  3.7951123167253099e-05  4.7715821066528542e-05  4.3072927778784439e-05  3.5245798076808509e-05  3.9301154829113013e-05  3.1362234272792188e-05  3.5400398093893353e-05  4.3948487592310339e-05  3.8434741763418678e-05  3.1033242720092959e-05  3.3424810126197588e-05  3.9976010071639023e-05  3.4558778558186037e-05  4.2094661194093963e-05  3.4570674311431639e-05  4.0345904969752016e-05  3.2692237275073278e-05  3.7447771907593443e-05  2.7901453139949564e-05  4.7841616949622152e-05  2.9718014475675987e-05  3.3458676809444457e-05  4.1452422409777996e-05  3.6522370522009701e-05  2.8572493215080299e-05  3.0879032360524254e-05  2.3333127603554603e-05  2.4997749964413750e-05  3.1932098062276939e-05  2.5592380700851633e-05  2.7326002079782692e-05  1.8460997307320721e-05  4.4805188503160986e-05  4.9134469808839571e-05  3.2193374729630533e-05  2.5893577408357026e-05  1.9907057898552012e-05  2.0377011791434960e-05  1.4977825723751833e-05  1.4987855219757265e-05  1.9096055281119629e-05  1.4686960615027591e-05  1.1298839250285874e-05  1.1690811325487685e-05  1.5342606523770169e-05  1.2733765285222201e-05  9.4963037133255582e-06  1.1150491015225417e-05  1.5285357474547248e-05  1.3633411348290248e-05  9.7464479353350552e-06  1.2364190876310052e-05  1.7391720652403095e-05  1.5557306615827075e-05  2.1350248792245381e-05  1.8729183016081754e-05  2.5687643678446386e-05  2.1556012924039997e-05  2.9499683912625683e-05  1.3517890469484946e-05  2.3242851377724416e-05  3.1407465506624349e-05  3.9096304007211467e-05  4.1021059821898594e-05  2.9068319569355418e-05  5.1740466915470367e-05  5.2316202460985109e-05  8.5678608851665454e-06  4.0474766311648407e-05  5.0741549246578294e-05  6.5225697009866368e-05  6.1452917958104841e-05  7.7729091645435734e-05  7.1736614862467167e-05  8.6673122796372207e-05  8.2135210921422145e-05  6.3516984329566877e-05  7.1156274615625075e-05  9.0350786039411160e-05  7.7608651285310465e-05  9.2821564253099036e-05  8.0701591196078785e-05  9.5864587840836842e-05  8.0583700303833597e-05  9.3746369383562955e-05  7.8783991282149973e-05  8.6932011224548160e-05  7.4898227936128590e-05  8.1253783114781683e-05  6.8972771677822949e-05  7.4076756595936035e-05  6.1728880470872889e-05  6.5312725273228371e-05  5.3495198616268121e-05  5.4785737558219731e-05  6.1572074652613029e-05  6.6468482210710531e-05  5.6007514703512058e-05  4.8982111504907731e-05  4.1233997650312043e-05  6.7215202577003267e-05  5.4883500246502313e-05  4.3285081933437434e-05  8.7232560321706684e-05  6.4945085430891049e-05  5.2809367712456650e-05  6.1110348313826732e-05  5.2069193774031440e-05  5.7716533345793122e-05  4.8619589812566954e-05  5.5614028234600238e-05  4.6060016103042229e-05  5.5634309822328942e-05  6.6469886006001723e-05  1.0495762169315673e-04  1.6532735982737174e-05  6.6026091972849007e-06  3.8529804170639865e-05  4.3663658762956300e-05  5.3106482793445280e-05  3.9366241167066659e-05  7.8120517684871551e-05  7.6354211075925070e-05  6.5905322452325556e-05  3.6328029728961468e-05  1.5524644085445628e-05  1.0338379205896613e-04  4.6774752500714345e-05  6.3507560124471531e-05  6.4242738216891437e-05  5.1743302665012935e-05  6.2140184095898802e-05  4.9830128476575084e-05  6.0564779648061746e-05  7.2122011155498398e-05  7.0552969964180967e-05  5.8453165106308045e-05  6.7637773867171899e-05  5.4855094611242969e-05  6.3012985600864133e-05  7.5390824616368199e-05  6.9514191793727749e-05  8.0840229873616634e-05  7.3551091819468533e-05  6.2196188794855033e-05  6.4963902207365180e-05  5.3697455907482723e-05  7.5288151013585115e-05  6.5219059837482232e-05  7.4133714040723308e-05  6.2995342905035518e-05  7.0640757443445030e-05  5.8826415836612034e-05  6.5252719925564223e-05  5.4804064077428380e-05  5.0139869238910155e-05  4.2172402862993320e-05  8.1461458036475540e-05  8.1185194175228051e-05  8.6639930600424650e-05  9.1110588323303133e-05  5.3074300640984994e-05  6.0192249279029760e-05  4.5755903658988179e-05  7.1106790538074462e-05  6.3409617260584092e-05  5.3490400413486003e-05  7.1774612416639788e-05  4.4365041658199784e-05  3.3398618055855777e-05  3.0354479354040319e-05  3.3616956786397687e-05  4.9855500048800560e-05  4.0978584309740586e-05  1.4587103215579256e-05  2.9534751638309653e-05  3.3868557868087102e-05  3.9849278651168658e-05  4.2221431750569359e-05  1.9133355525093071e-06  6.9984905432207293e-06  5.4987740012755928e-05  4.6541753749565483e-05  5.2300750218068154e-05  5.5504470444486355e-05  3.5045072126589641e-05  3.8189234017725442e-05  4.4178225719831304e-05  4.4121845796682197e-05  7.0227489853950768e-05  5.1423865614672096e-05  4.3943134211233248e-05  2.4771894479536949e-05  6.4433438918179523e-05  7.4868029373457919e-05  5.7370975229657414e-05  8.2658296319905537e-05  8.8661520712695629e-05  7.1899040339192663e-05  5.0304729853981022e-05  8.7787906499172823e-05  8.5192915241820368e-05  9.6858246998179329e-05  5.2947856914975149e-05  2.2665984102220057e-05  5.7163324394354689e-05  4.1483441672603956e-05  7.6254206615869113e-05  2.1072033257589436e-05  4.0816465539163585e-05  4.4050531316951373e-05  3.4039515744075550e-05  2.8928258070083466e-05  7.2233534092149533e-05  9.6087391775877382e-05  9.8997910760912814e-05  9.3873937539752417e-05  3.8855817281308554e-05  3.1712365682943240e-05  3.7836116920489215e-05  2.6299749220996912e-05  1.0045191729089311e-04  9.4873212548725092e-05  2.8438096303090595e-05  2.4404709347672403e-05  5.2740446205268142e-05  9.1886825920698594e-05  6.4512555019004953e-05  5.2710436618194462e-05  3.4611634584410008e-05  6.2537008013170898e-05  2.3631829960911708e-05  4.0883491310816698e-05  7.1209681485673206e-05  6.5761239700953310e-05  5.9055742682446700e-05  5.2368875586911363e-05  5.8180957752293159e-05  8.4626376015564143e-05  7.9981394867323347e-05  8.5941352610423779e-05  9.1488989555767476e-05  9.7600067010375101e-05  1.0389057112577292e-04  1.0560175363567507e-04  1.1021511476816772e-04  9.9083210251928132e-05  3.1028251368961570e-05  3.0519719963975655e-05  2.3596959942812654e-05  2.1837427259025263e-05  2.1069626327504584e-05  2.3242912868967696e-05  2.0878658705435807e-05  7.2062035160675833e-05  3.3209131702797946e-05  1.0264927436794563e-04  9.9176612987716956e-05  9