<?xml version="1.0"?>
<VTKFile type="UnstructuredGrid"  version="0.1"  >
<UnstructuredGrid>
<Piece  NumberOfPoints="1181" NumberOfCells="2264">
<Points>
<DataArray  type="Float64"  NumberOfComponents="3"  format="ascii">0 0 0  0 1 0  1 1 0  1 0 0  1.1 -0.1 0  -0.1 -0.1 0  1.1 1.1 0  -0.1 1.1 0  0.5504770438994886 0.5450918675942771 0  0.6144022078738959 0.7238656392391787 0  0 0.9499999999997918 0  0 0.8999999999995836 0  0 0.8499999999996529 0  0 0.7999999999999998 0  0 0.7500000000003466 0  0 0.7000000000006934 0  0 0.6500000000010401 0  0 0.6000000000013869 0  0 0.5500000000017335 0  0 0.5000000000020587 0  0 0.4500000000018723 0  0 0.4000000000016644 0  0 0.3500000000014564 0  0 0.3000000000012483 0  0 0.2500000000010403 0  0 0.2000000000008322 0  0 0.1500000000006241 0  0 0.100000000000416 0  0 0.05000000000020799 0  0.04999999999989965 0 0  0.09999999999981467 0 0  0.1499999999997036 0 0  0.1999999999995579 0 0  0.2499999999994121 0 0  0.2999999999992664 0 0  0.3499999999991206 0 0  0.3999999999989749 0 0  0.4499999999988292 0 0  0.4999999999986943 0 0  0.5499999999988151 0 0  0.5999999999989468 0 0  0.6499999999990784 0 0  0.69999999999921 0 0  0.7499999999993417 0 0  0.7999999999994734 0 0  0.8499999999996051 0 0  0.8999999999997368 0 0  0.9499999999998684 0 0  1 0.04999999999989965 0  1 0.09999999999981467 0  1 0.1499999999997036 0  1 0.1999999999995579 0  1 0.2499999999994121 0  1 0.2999999999992664 0  1 0.3499999999991206 0  1 0.3999999999989749 0  1 0.4499999999988292 0  1 0.4999999999986943 0  1 0.5499999999988151 0  1 0.5999999999989468 0  1 0.6499999999990784 0  1 0.69999999999921 0  1 0.7499999999993417 0  1 0.7999999999994734 0  1 0.8499999999996051 0  1 0.8999999999997368 0  1 0.9499999999998684 0  0.9499999999997918 1 0  0.8999999999995836 1 0  0.8499999999996529 1 0  0.7999999999999998 1 0  0.7500000000003466 1 0  0.7000000000006934 1 0  0.6500000000010401 1 0  0.6000000000013869 1 0  0.5500000000017335 1 0  0.5000000000020587 1 0  0.4500000000018723 1 0  0.4000000000016644 1 0  0.3500000000014564 1 0  0.3000000000012483 1 0  0.2500000000010403 1 0  0.2000000000008322 1 0  0.1500000000006241 1 0  0.100000000000416 1 0  0.05000000000020799 1 0  -0.1 1.05000000000004 0  -0.1 1.000000000000079 0  -0.1 0.9500000000001624 0  -0.1 0.9000000000003032 0  -0.1 0.850000000000444 0  -0.1 0.8000000000005848 0  -0.1 0.7500000000007256 0  -0.1 0.7000000000008665 0  -0.1 0.6500000000010508 0  -0.1 0.6000000000012352 0  -0.1 0.5500000000014196 0  -0.1 0.500000000001539 0  -0.1 0.4500000000014195 0  -0.1 0.4000000000013 0  -0.1 0.3500000000011588 0  -0.1 0.3000000000010178 0  -0.1 0.2500000000008986 0  -0.1 0.2000000000007579 0  -0.1 0.1500000000006174 0  -0.1 0.1000000000005272 0  -0.1 0.05000000000040083 0  -0.1 2.671196597248127e-13 0  -0.1 -0.0499999999998666 0  -0.0500000000000906 -0.1 0  -1.730560139634463e-13 -0.1 0  0.04999999999975802 -0.1 0  0.09999999999961506 -0.1 0  0.1499999999994613 -0.1 0  0.199999999999302 -0.1 0  0.2499999999991446 -0.1 0  0.2999999999990088 -0.1 0  0.3499999999988296 -0.1 0  0.3999999999986936 -0.1 0  0.4499999999985143 -0.1 0  0.4999999999984002 -0.1 0  0.5499999999985247 -0.1 0  0.5999999999986493 -0.1 0  0.6499999999987955 -0.1 0  0.6999999999989417 -0.1 0  0.7499999999990659 -0.1 0  0.7999999999992116 -0.1 0  0.8499999999993573 -0.1 0  0.8999999999994526 -0.1 0  0.949999999999584 -0.1 0  0.9999999999997226 -0.1 0  1.049999999999861 -0.1 0  1.1 -0.0500000000000906 0  1.1 -1.730560139634463e-13 0  1.1 0.04999999999975802 0  1.1 0.09999999999961506 0  1.1 0.1499999999994613 0  1.1 0.199999999999302 0  1.1 0.2499999999991446 0  1.1 0.2999999999990088 0  1.1 0.3499999999988296 0  1.1 0.3999999999986936 0  1.1 0.4499999999985143 0  1.1 0.4999999999984002 0  1.1 0.5499999999985247 0  1.1 0.5999999999986493 0  1.1 0.6499999999987955 0  1.1 0.6999999999989417 0  1.1 0.7499999999990659 0  1.1 0.7999999999992116 0  1.1 0.8499999999993573 0  1.1 0.8999999999994526 0  1.1 0.949999999999584 0  1.1 0.9999999999997226 0  1.1 1.049999999999861 0  1.05000000000004 1.1 0  1.000000000000079 1.1 0  0.9500000000001624 1.1 0  0.9000000000003032 1.1 0  0.850000000000444 1.1 0  0.8000000000005848 1.1 0  0.7500000000007256 1.1 0  0.7000000000008665 1.1 0  0.6500000000010508 1.1 0  0.6000000000012352 1.1 0  0.5500000000014196 1.1 0  0.500000000001539 1.1 0  0.4500000000014195 1.1 0  0.4000000000013 1.1 0  0.3500000000011588 1.1 0  0.3000000000010178 1.1 0  0.2500000000008986 1.1 0  0.2000000000007579 1.1 0  0.1500000000006174 1.1 0  0.1000000000005272 1.1 0  0.05000000000040083 1.1 0  2.671196597248127e-13 1.1 0  -0.0499999999998666 1.1 0  0.6484976087844743 0.7165808501837316 0  0.6813705106878417 0.7023041668556903 0  0.7107449548848832 0.680480757998962 0  0.7331261832521595 0.6514106708196528 0  0.7456151510695078 0.6173565703292364 0  0.7525310232161043 0.5825344339256286 0  0.7543590939615018 0.5475622835938119 0  0.7538542292201434 0.5128600429357032 0  0.750753885675606 0.4783855036275367 0  0.7451154654734897 0.4443941850575474 0  0.7369150822946906 0.4108782768396255 0  0.726122693131084 0.3781313608595662 0  0.7126536442706871 0.3462985243109412 0  0.6958352532069255 0.3161873548801236 0  0.6752364381967219 0.2881237242774983 0  0.6489453295863028 0.2646399695431472 0  0.6182773258485792 0.247440524494615 0  0.5841921335550775 0.2411293210764673 0  0.5503921101891472 0.2428822298961655 0  0.51833368317006 0.2509985649876888 0  0.4876363851432888 0.2621485715014131 0  0.4581484474876666 0.2753235946464289 0  0.4293792340547402 0.2898475609161978 0  0.4013916758567141 0.3056260308093444 0  0.3741644640873023 0.322465618613565 0  0.3477608773432588 0.3401937334457928 0  0.3220243308260947 0.3586250656457064 0  0.2971029181394118 0.3777671496233132 0  0.2729778033510433 0.3973749502617663 0  0.2496333362800199 0.4176142087252695 0  0.2270361727036557 0.4383213388511198 0  0.2054440179154113 0.4600283614917445 0  0.1861238295938835 0.4840434566680381 0  0.1730200859808357 0.5128279284949113 0  0.1752309029688676 0.5463509591646946 0  0.1916323373911428 0.5745798690235345 0  0.2147406356579684 0.5965687988980378 0  0.2401089147345347 0.6157201448526148 0  0.2666961630884954 0.6332479942904857 0  0.2942557442268269 0.6496589966453458 0  0.3227539808042044 0.6648993259931993 0  0.3522863517980867 0.6788935081473425 0  0.382649021778303 0.6912524902796494 0  0.4140220869948782 0.7020102523977331 0  0.4462337747174639 0.711059376791338 0  0.4788926025115735 0.7183443470056344 0  0.5122195203433144 0.7236165899829461 0  0.5460671696675864 0.7265531835823064 0  0.5801092801878337 0.7268849675101076 0  0.3500295753386468 0.6419220591613758 0  0.331254137963128 0.3889069656031944 0  0.5472006522289374 0.2758122959645476 0  0.6805413404125507 0.3443478775280424 0  0.256727294909307 0.4512919448775411 0  0.6784905093507619 0.6697789710241587 0  0.4027778614664291 0.33868843560159 0  0.2671849629630558 0.5978721751721487 0  0.712996979710242 0.4287049041679749 0  0.458318465544221 0.3096214754048171 0  0.4140755508299442 0.6610988233713869 0  0.4679329224607558 0.6846304714905738 0  0.5333812807312844 0.6935036619809077 0  0.7238752009829388 0.5649372048689216 0  0.7220804411796248 0.4993494352411597 0  0.5978441201407929 0.6937626372137687 0  0.2168398993112052 0.4944499472159617 0  0.6237303611508455 0.2826863629222727 0  0.2205902445249387 0.5604342679872467 0  0.7104726456283211 0.625251907244136 0  0.1994745862119356 0.5286378037155816 0  0.2315674828929276 0.5273583684734112 0  0.2467050238721717 0.5001623163323397 0  0.2609794513015612 0.5294001923327172 0  0.2768628705256594 0.5028686220422103 0  0.2914519105050646 0.5333449154887168 0  0.3077810949462838 0.5038017848319246 0  0.3229507415682474 0.536988479323927 0  0.3402508821964969 0.5055482438678613 0  0.3559692641898591 0.5410652868913278 0  0.3747898015800548 0.5080324879920718 0  0.3926875426578145 0.5450435149144504 0  0.4151752851188596 0.5082792511861518 0  0.3903843291037896 0.4635751379897538 0  0.4385189763985973 0.4660546651750746 0  0.3232236631065049 0.4724478067726869 0  0.3360177219226754 0.5713103094860692 0  0.4356539472778064 0.5595012202697358 0  0.4169969798045399 0.421060063310839 0  0.4674119828859031 0.4288416240053999 0  0.4058028673496454 0.5939227959424244 0  0.4567864517295169 0.600250767764846 0  0.378221755983371 0.4225144603418559 0  0.3873700569582726 0.3891911904519375 0  0.4200660046292652 0.3845873955229805 0  0.4628940196425679 0.3705657095853291 0  0.4289619057887193 0.6285062465427841 0  0.4946809505871953 0.4848699066486065 0  0.5198261397330034 0.4201657086863396 0  0.513790500373664 0.3630878669641249 0  0.485362082788882 0.5560537674801735 0  0.5051124974806094 0.5940400348535043 0  0.5641073558656131 0.5965664068981519 0  0.4780315189590377 0.6341142955493607 0  0.2724547279665019 0.563620146732312 0  0.287131465932897 0.4688695780080432 0  0.3057894938475141 0.4446478765918498 0  0.3328465020303446 0.4432745079664668 0  0.304917130187768 0.5653682396456388 0  0.3151989287285993 0.5962751349497076 0  0.3471946163456246 0.6060628194768524 0  0.3697284337437572 0.5785794126768322 0  0.380010038144352 0.6135893360307816 0  0.3803450285582634 0.6511007985349223 0  0.3552841410217146 0.3719326819052395 0  0.3777700239391014 0.3558884965390643 0  0.4302685073271653 0.3236904517867267 0  0.4385025601788203 0.6793713268945084 0  0.4871328939438238 0.2958555902118324 0  0.4878911809456993 0.3305520456728742 0  0.5163798700627544 0.314942581727535 0  0.547311877925322 0.3406270395513198 0  0.555961979421688 0.381928095738426 0  0.5789938757193405 0.4264140234083 0  0.5860117845844512 0.3547808750977636 0  0.6226130683731648 0.4069250703532951 0  0.5770098610625626 0.3222333360079837 0  0.6132264599867527 0.3357498552936986 0  0.5010517470426128 0.6911295729679673 0  0.5213403976140576 0.6628287436749914 0  0.5525110301926525 0.6631229604375495 0  0.7235279582748515 0.5325301361242806 0  0.6928507245525212 0
[...]
<PointData  Scalars="v"> 
<DataArray  type="Float64"  Name="v"  format="ascii">0.0000000000000000e+00  0.0000000000000000e+00  0.0000000000000000e+00  0.0000000000000000e+00  0.0000000000000000e+00  0.0000000000000000e+00  0.0000000000000000e+00  0.0000000000000000e+00  -2.8281495939819787e-04  -2.2498643242067041e-04  0.0000000000000000e+00  0.0000000000000000e+00  0.0000000000000000e+00  0.0000000000000000e+00  0.0000000000000000e+00  0.0000000000000000e+00  0.0000000000000000e+00  0.0000000000000000e+00  0.0000000000000000e+00  0.0000000000000000e+00  0.0000000000000000e+00  0.0000000000000000e+00  0.0000000000000000e+00  0.0000000000000000e+00  0.0000000000000000e+00  0.0000000000000000e+00  0.0000000000000000e+00  0.0000000000000000e+00  0.0000000000000000e+00  0.0000000000000000e+00  0.0000000000000000e+00  0.0000000000000000e+00  0.0000000000000000e+00  0.0000000000000000e+00  0.0000000000000000e+00  0.0000000000000000e+00  0.0000000000000000e+00  0.0000000000000000e+00  0.0000000000000000e+00  0.0000000000000000e+00  0.0000000000000000e+00  0.0000000000000000e+00  0.0000000000000000e+00  0.0000000000000000e+00  0.0000000000000000e+00  0.0000000000000000e+00  0.0000000000000000e+00  0.0000000000000000e+00  0.0000000000000000e+00  0.0000000000000000e+00  0.0000000000000000e+00  0.0000000000000000e+00  0.0000000000000000e+00  0.0000000000000000e+00  0.0000000000000000e+00  0.0000000000000000e+00  0.0000000000000000e+00  0.0000000000000000e+00  0.0000000000000000e+00  0.0000000000000000e+00  0.0000000000000000e+00  0.0000000000000000e+00  0.0000000000000000e+00  0.0000000000000000e+00  0.0000000000000000e+00  0.0000000000000000e+00  0.0000000000000000e+00  0.0000000000000000e+00  0.0000000000000000e+00  0.0000000000000000e+00  0.0000000000000000e+00  0.0000000000000000e+00  0.0000000000000000e+00  0.0000000000000000e+00  0.0000000000000000e+00  0.0000000000000000e+00  0.0000000000000000e+00  0.0000000000000000e+00  0.0000000000000000e+00  0.0000000000000000e+00  0.0000000000000000e+00  0.0000000000000000e+00  0.0000000000000000e+00  0.0000000000000000e+00  0.0000000000000000e+00  0.0000000000000000e+00  0.0000000000000000e+00  0.0000000000000000e+00  0.0000000000000000e+00  0.0000000000000000e+00  0.0000000000000000e+00  0.0000000000000000e+00  0.0000000000000000e+00  0.0000000000000000e+00  0.0000000000000000e+00  0.0000000000000000e+00  0.0000000000000000e+00  0.0000000000000000e+00  0.0000000000000000e+00  0.0000000000000000e+00  0.0000000000000000e+00  0.0000000000000000e+00  0.0000000000000000e+00  0.0000000000000000e+00  0.0000000000000000e+00  0.0000000000000000e+00  0.0000000000000000e+00  0.0000000000000000e+00  0.0000000000000000e+00  0.0000000000000000e+00  0.0000000000000000e+00  0.0000000000000000e+00  0.0000000000000000e+00  0.0000000000000000e+00  0.0000000000000000e+00  0.0000000000000000e+00  0.0000000000000000e+00  0.0000000000000000e+00  0.0000000000000000e+00  0.0000000000000000e+00  0.0000000000000000e+00  0.0000000000000000e+00  0.0000000000000000e+00  0.0000000000000000e+00  0.0000000000000000e+00  0.0000000000000000e+00  0.0000000000000000e+00  0.0000000000000000e+00  0.0000000000000000e+00  0.0000000000000000e+00  0.0000000000000000e+00  0.0000000000000000e+00  0.0000000000000000e+00  0.0000000000000000e+00  0.0000000000000000e+00  0.0000000000000000e+00  0.0000000000000000e+00  0.0000000000000000e+00  0.0000000000000000e+00  0.0000000000000000e+00  0.0000000000000000e+00  0.0000000000000000e+00  0.0000000000000000e+00  0.0000000000000000e+00  0.0000000000000000e+00  0.0000000000000000e+00  0.0000000000000000e+00  0.0000000000000000e+00  0.0000000000000000e+00  0.0000000000000000e+00  0.0000000000000000e+00  0.0000000000000000e+00  0.0000000000000000e+00  0.0000000000000000e+00  0.0000000000000000e+00  0.0000000000000000e+00  0.0000000000000000e+00  0.0000000000000000e+00  0.0000000000000000e+00  0.0000000000000000e+00  0.0000000000000000e+00  0.0000000000000000e+00  0.0000000000000000e+00  0.0000000000000000e+00  0.0000000000000000e+00  0.0000000000000000e+00  0.0000000000000000e+00  0.0000000000000000e+00  0.0000000000000000e+00  0.0000000000000000e+00  0.0000000000000000e+00  0.0000000000000000e+00  0.0000000000000000e+00  0.0000000000000000e+00  0.0000000000000000e+00  0.0000000000000000e+00  0.0000000000000000e+00  0.0000000000000000e+00  -2.3680145769078829e-04  -2.4727906296520617e-04  -2.5895446179083082e-04  -2.6695169468277682e-04  -2.7461597595598587e-04  -2.8153437156849749e-04  -2.8619506910495786e-04  -2.9019496519889029e-04  -2.9355349874797288e-04  -2.9652646546981344e-04  -2.9840506148155516e-04  -2.9936022841219777e-04  -2.9727038161246556e-04  -2.9296612326754816e-04  -2.8588320706267475e-04  -2.7771610675829975e-04  -2.6403074958120722e-04  -2.5688684419830111e-04  -2.4492296180654636e-04  -2.3707791749431078e-04  -2.3209532515904030e-04  -2.2899021531016199e-04  -2.2812748069857224e-04  -2.3122917962866503e-04  -2.3818694641387117e-04  -2.4848808494193472e-04  -2.6079899461710620e-04  -2.7447851239088502e-04  -2.8708721260971195e-04  -3.0001457655728876e-04  -3.0720373922900617e-04  -3.0730517619913055e-04  -3.0271755724029393e-04  -3.0187070525213738e-04  -3.0432863630250047e-04  -3.0610951363969078e-04  -3.1342720895935467e-04  -3.1140232897040356e-04  -3.0400575304940673e-04  -2.8960526205551023e-04  -2.7110881128020094e-04  -2.5177097685857234e-04  -2.3433656397325769e-04  -2.2053137092707542e-04  -2.1111497238966826e-04  -2.0493715714432764e-04  -2.0333629171775521e-04  -2.0835041058225236e-04  -2.1498983149340208e-04  -2.4078108272211128e-04  -2.4374208677046741e-04  -2.2441961971829782e-04  -2.6091667786121674e-04  -2.7557767395583878e-04  -2.2611100545434152e-04  -2.1922933756523725e-04  -2.7784328138097153e-04  -2.6457734216516951e-04  -2.1477407868208029e-04  -2.1522160129939125e-04  -1.9834823608122561e-04  -1.9671483670748196e-04  -2.5247742994534541e-04  -2.6056500084269216e-04  -2.0618424722060536e-04  -2.7902884430146740e-04  -2.4276931922664798e-04  -2.8083024068903146e-04  -2.3954006160811984e-04  -2.7237197355070737e-04  -2.8546131426532566e-04  -2.8854354132287860e-04  -2.9557800698639780e-04  -2.9584631121265357e-04  -2.9851618769095693e-04  -2.9700245475368934e-04  -2.9561063444754596e-04  -2.9439648956227992e-04  -2.9093241683552051e-04  -2.9153767779853916e-04  -2.8564717039362947e-04  -2.8897383598162343e-04  -2.8457484931233363e-04  -2.8531166476961328e-04  -2.8860446731342963e-04  -2.8500491862058877e-04  -2.7729333891946841e-04  -2.7048566157929042e-04  -2.7864765020252461e-04  -2.6542256792000163e-04  -2.5813797614386569e-04  -2.6739827897018719e-04  -2.4769172072628185e-04  -2.5080732709119514e-04  -2.5231939193528006e-04  -2.4046324723305391e-04  -2.9116257122187338e-04  -2.8336282580821451e-04  -2.6177471190596895e-04  -2.7745035230748971e-04  -2.6028506196339705e-04  -2.6181454680635776e-04  -2.3560890481540893e-04  -2.8978930960592302e-04  -2.8494818517696213e-04  -2.7414162887226784e-04  -2.7548624593341851e-04  -2.8962585500118780e-04  -2.7377718176339118e-04  -2.6438092446141377e-04  -2.7747962655173537e-04  -2.5532095116131856e-04  -2.2790068374989403e-04  -2.3329718134927705e-04  -2.2557848404943033e-04  -2.1559039951338525e-04  -2.0420164394729855e-04  -2.1614403336219393e-04  -2.3554634028143511e-04  -2.3557418287737248e-04  -2.5873542595133606e-04  -2.7609958349657254e-04  -2.8880286486161104e-04  -2.7054371365434313e-04  -2.8404876137214769e-04  -2.5491758862299991e-04  -2.6348775128989289e-04  -1.9544344039030648e-04  -2.1672951877241262e-04  -2.1990631160345519e-04  -2.5689156810854852e-04  -2.6795498904057328e-04  -2.7152826013431496e-04  -2.8009178674151671e-04  -2.7437750743079358e-04  -2.8318030695605341e-04  -2.8698581137276473e-04  -2.8863919593520316e-04  -2.8122759871278947e-04  -2.7504526752895946e-04  -2.6879997419221069e-04  -2.9072864294619826e-04  -2.7503467501117500e-04  -2.8809798983641109e-04  -2.6371494966594735e-04  -2.5296627759742224e-04  -2.7332858388187095e-04  -2.6297039083747058e-04  -2.0071516404543326e-04  -2.8334519951067009e-04  -2.1924275751633303e-04  -2.1288710303640694e-04  -2.2746087046527413e-04  -2.2825206971393368e-04  -2.4668264568126515e-04  -2.4015288782664918e-04  -2.5914259595741224e-04  -2.6158975866010724e-04  -2.5086611421927453e-04  -2.7185607339415426e-04  -2.4595098740293198e-04  -2.6474939008855271e-04  -2.8231865371559591e-04  -2.5509304735665296e-04  -2.6834328788098358e-04  -2.6472340506311951e-04  -2.7572348203925147e-04  -2.3948481449926086e-04  -2.6922900023946368e-04  -2.4066461643721220e-04  -2.3779464498232953e-04  -2.4715407327823903e-04  -2.3052957039905526e-04  -2.3311069817919165e-04  -2.8001957108999328e-04  -2.5578713230600100e-04  -2.4707152152982179e-04  -2.2369158391450115e-04  -2.2503995810433508e-04  -2.1535565574852739e-04  -2.5644868717830606e-04  -2.4370444701750862e-04  -2.6194674770921642e-04  -2.8818831053689837e-04  -2.5284095722501155e-04  -2.9205262503752505e-04  -2.4125525117117404e-04  -2.4138436182236331e-04  -2.8687376718534118e-04  -2.2087649242181652e-04  -2.6074853088122634e-04  -2.3883942779712595e-04  -2.6831527089955630e-04  -2.8010142891502247e-04  -2.5928135377858421e-04  -2.6909311749138276e-04  -2.3473176458386241e-04  -2.8571338149720350e-04  -2.5403726770141706e-04  -2.5441366899994186e-04  -2.7033806095322680e-04  -2.7698007099059266e-04  -2.5541347143532179e-04  -2.6160075588369230e-04  -2.6578294055878851e-04  -2.3508965008120147e-04  -2.5005837392123084e-04  -2.8037623897866627e-04  -2.6282688379978479e-04  -2.5878888873636594e-04  -3.0546143477252493e-04  -2.4439441910632939e-04  -2.1734763620332161e-04  -3.1690414906840228e-04  -2.9299853451566804e-04  -3.3106208151944578e-04  -2.5223965587236935e-04  -2.5935578155384943e-04  -3.2804957739349555e-04  -2.9442740668883375e-04  -3.1941527937411101e-04  -3.4025035098471542e-04  -1.4149731944711680e-05  -9.6199491056624354e-06  -7.5204078438764697e-06  -2.4787451622118291e-04  -1.4657516087282575e-05  -2.9004178736305865e-04  -3.2190552619438852e-05  -9.2871909121078365e-06  -4.6528551212232040e-05  -5.7654682110848389e-06  -2.3578575021930505e-04  -2.6645143121841049e-04  -3.8919762955788944e-05  -1.5187985350313874e-05  -5.8358393722889917e-06  -5.3658282301949104e-05  -2.9748049261727547e-05  -3.2401169213368427e-04  -3.2867919873249304e-04  -5.2193766062276839e-05  -3.1013900102454315e-04  -7.4791706856433977e-05  -7.7021484763753099e-05  -3.0584351659250965e-05  -4.3521331583911999e-05  -3.1743598078305031e-05  -8.3793304904672719e-07  -9.8853392192258725e-06  -7.5399911020328801e-06  -1.0338132574284382e-05  -2.3423639890835468e-05  -9.3813245147289910e-05  -1.5144448993230915e-05  -1.5778197368593498e-05  -3.1345395880492987e-04  -3.0489075350489502e-04  -2.8779600701459284e-04  -2.6865974971865340e-04  -2.8551239119216880e-04  -2.4151775472833708e-04  -2.5755040431646984e-04  -2.1721175284479446e-04  -2.3334244459170599e-05  -2.9566521749867415e-04  -2.6443995878223383e-04  -2.2129421923629437e-04  -2.2715588381949113e-04  -2.7194518297963123e-04  -2.2749897009961690e-04  -2.5568818596701274e-04  -2.1706793223610582e-04  -2.3607286640376778e-04  -1.9992464739255084e-04  -2.1192050689119887e-04  -1.7850425778659438e-04  -1.8567025426094891e-04  -1.5416608448896510e-04  -1.5900263809601973e-04  -1.4560126601338542e-04  -1.2286881660867623e-04  -1.8094641024628142e-04  -1.1327286477940134e-04  -1.9221724488651147e-04  -1.6150717571112067e-04  -1.3435311625236614e-04  -1.3702109564519592e-04  -1.6203929141485373e-04  -1.4066567214698282e-04  -1.1571580844428961e-04  -1.2181834202686163e-04  -9.5501595736855577e-05  -1.0411594907367787e-04  -1.3118018473156899e-04  -1.1538019985130045e-04  -1.4295065636787875e-04  -1.2863407180525434e-04  -1.6245647941485615e-04  -1.4369590351429365e-04  -1.7408700970570560e-04  -1.5658205274242157e-04  -1.8682241100639277e-04  -1.6683637172348005e-04  -1.9644542564553572e-04  -1.7299330988772930e-04  -2.0108552207707389e-04  -1.7327277579153860e-04  -1.9736760458046438e-04  -1.6688014223612758e-04  -1.8665144921975208e-04  -1.4440906503241060e-04  -1.3533278096086718e-04  -1.3685705962810936e-04  -1.1466061056489419e-04  -1.1291608215029647e-04  -1.0441069010479461e-04  -1.2018515947211496e-04  -2.3140915685747917e-04  -1.5631970161665706e-04  -8.5917440211091454e-05  -9.1013044630200581e-05  -8.9272355259213142e-05  -9.0022047285605295e-05  -1.9188940620270653e-04  -8.7735726668392545e-05  -9.7791807985505338e-05  -6.8919582187397719e-05  -8.7401599493963585e-05  -2.4740286516707115e-04  -7.9812617154226081e-05  -9.9338963798179046e-05  -2.0691867050677795e-04  -6.4909887297088950e-05  -6.1155362690750811e-05  -6.8978757996489038e-05  -8.2006487719999655e-05  -2.9919152011117112e-04  -2.6490130455705514e-04  -2.7735690879065864e-04  -1.6585875217408019e-04  -1.8711741878733480e-04  -1.9065673937005161e-04  -2.3666223295215518e-04  -2.4842669361038652e-04  -5.5150159920650590e-06  -1.3247918724427942e-04  -1.0421958905428690e-04  -1.4204756680312821e-04  -1.0692709951253839e-04  -1.4538384314296274e-04  -1.0655375485365423e-04  -1.4575214215748576e-04  -1.8458906387734653e-04  -1.8498655525363153e-04  -2.2142674835745079e-04  -2.2238119854453851e-04  -1.8405461747949731e-04  -2.2058993350789881e-04  -1.8068353485214793e-04  -2.1639393053631537e-04  -1.7453301449847037e-04  -2.0955775207776281e-04  -1.6681119044896310e-04  -2.0037348811056851e-04  -1.5624033575998018e-04  -1.8836441389797308e-04  -2.3005683289276999e-04  -2.1574253644214493e-04  -1.7375990672511643e-04  -1.9734077966018483e-04  -1.5570864291792772e-04  -1.7461814211302404e-04  -2.1402842927741633e-04  -1.8637322719261028e-04  -2.2207047712514565e-04  -1.4879504517701327e-04  -1.8923923665370771e-04  -2.2089549560227705e-04  -1.8383814619585764e-04  -2.1765355721470986e-04  -2.5550426958916624e-04  -1.7085244492452505e-04  -1.9444568459576328e-04  -1.3010569362867231e-04  -2.5119871577832019e-04  -1.5384971838174649e-04  -1.3854237782500931e-04  -1.1394895516644506e-04  -2.6005273767622255e-04  -2.1711540386283094e-04  -2.5505384549521950e-04  -2.5866111751399217e-04  -2.4471372670249617e-04  -1.4945664150051093e-04  -1.6949865894640801e-04  -2.1283535609103267e-04  -1.8588466119889673e-04  -2.6927141636093500e-04  -2.9156643420244309e-04  -2.2737170258471220e-04  -2.0443156511382366e-04  -1.5822890849715373e-04  -1.6946693470095247e-04  -2.0664126915908928e-04  -1.7626067593780822e-04  -2.1054163385961303e-04  -1.8612884732797436e-04  -1.4958463124420895e-04  -1.5649864751111691e-04  -1.9055862295364810e-04  -1.6315693561518149e-04  -1.9194601104427592e-04  -1.7094577745739592e-04  -1.4135664585708906e-04  -1.4967181494933478e-04  -1.7867381012195727e-04  -1.5864197821367006e-04  -1.8867396671596511e-04  -1.6679379317416571e-04  -2.0371481540335421e-04  -1.7373371182979704e-04  -2.0489515198537659e-04  -1.4277439001184319e-04  -1.7387677981398243e-04  -2.0494555719393416e-04  -1.2010998528482260e-04  -1.6681441614508483e-04  -1.9618941446954469e-04  -1.4101910601703330e-04  -1.5046005538292182e-04  -2.3435871834152948e-04  -2.2498824890028083e-04  -1.2378347342858112e-04  -1.7600517100506451e-04  -2.2643261685233385e-04  -2.4994359298059039e-04  -2.0325344760246570e-04  -8.7212857042139505e-05  -1.2117760897915094e-04  -1.2581603942195431e-04  -1.0341428472380676e-04  -2.9362453361446878e-04  -6.5130218579727135e-05  -9.0263775191376286e-05  -6.1782030524556514e-05  -2.8669897210694908e-04  -2.7685966307459069e-04  -2.7891698630000433e-04  -2.9520978866972208e-04  -8.4172145407458907e-05  -1.0939414903648202e-04  -9.9991967986089855e-05  -7.0471742139133198e-05  -6.3069771616442740e-05  -2.1449098119750062e-04  -2.1764999079215423e-04  -2.3263075813917224e-04  -2.8971345485200554e-04  -2.9772223271926714e-04  -1.9721630225720115e-04  -1.1278493391085972e-04  -8.7946875721162091e-05  -1.1959769974825320e-04  -2.0957711261224070e-04  -2.1105924868948758e-04  -1.8528707475452895e-04  -1.5140283320135594e-04  -1.1132771158326514e-04  -6.6295871606436333e-05  -5.9352758164356881e-05  -2.5167655420515008e-04  -2.6078039144064233e-04  -3.0350093767837809e-04  -1.3052079144035050e-04  -7.3069428588162303e-05  -2.6649832427081891e-04  -1.1059725795818583e-04  -8.9214078306215953e-05  -9.9496061445289636e-05  -5.8227678946933542e-05  -1.1496886674732824e-05  -1.3830877510976622e-05  -1.2318883349569763e-04  -1.0252810927454985e-04  -4.1938587808983221e-05  -5.0820847304105640e-05  -2.5983612531362579e-04  -2.7300933048426696e-04  -4.2763040594366299e-05  -1.1623020748338047e-04  -2.1036273715634740e-04  -1.0446998914712234e-04  -3.1762747781955797e-04  -3.0751214932039575e-04  -3.2619713820989087e-04  -3.1850582018392340e-04  -2.1037291951217309e-04  -1.9733794085858571e-04  -2.2403210032409215e-04  -8.6148689949743445e-05  -1.1870678680773187e-04  -6.9551648008201134e-05  -7.9701618774695099e-05  -7.6225232098578701e-05  -9.6348232331507501e-05  -6.1466510918837454e-05  -7.7015737171106473e-05  -2.3145349690944494e-04  -5.5573022553162223e-05  -7.4727052910085524e-05  -2.3652047991695030e-04  -2.2505901429627638e-04  -6.1616316404485526e-05  -3.0441699586935964e-04  -2.9336489154066763e-04  -3.0048150376380060e-04  -3.3303006738708376e-04  -2.2111208249763132e-04  -6.5697631625131678e-05  -2.3622241176730861e-04  -2.3717780089341540e-04  -2.9627893336603515e-04  -3.0819064139732855e-04  -3.8234709326674736e-05  -2.5485823359653042e-04  -9.4183281295475373e-05  -2.8730700335113691e-04  -2.3782190312635434e-04  -1.0781938691733290e-04  -8.5619259710919513e-05  -2.5598814653031383e-04  -2.7670316202869547e-04  -8.1212236540499272e-05  -1.0180888322705279e-04  -2.3315152263679402e-04  -2.2923830363006363e-04  -2.3669135752123975e-04  -2.4215366436942544e-05  -3.1927462319624757e-04  -1.1762467392415685e-04  -2.4822575493328714e-04  -2.3576440095453310e-04  -2.2539514531581722e-04  -2.1474654602356456e-04  -2.0603871063252499e-04  -2.1557117128403496e-04  -1.9784625194335152e-04  -2.5031306645965370e-04  -2.6010729081717544e-04  -2.3872975849445770e-04  -2.4975111781837419e-04  -8.4346362859224488e-05  -5.8046067399284111e-05  -2.8242673498964614e-04  -3.1184648893165759e-04  -5.2880963653660892e-05  -4.2501395507045753e-05  -2.4396641427481419e-04  -2.5099588480339245e-04  -5.4708836283855322e-05  -6.3559615248857929e-05  -8.8666305104949953e-05  -6.2844615866511811e-05  -8.5076539660946461e-05  -5.5391894155102742e-05  -2.7196428804247808e-04  -2.3587308107070513e-04  -2.0770106966612052e-04  -2.1976784380882693e-04  -4.5124181439282032e-05  -5.4494741791005544e-05  -8.4884534413916612e-05  -2.8042119401125600e-04  -3.5732698442265838e-05  -1.8157220785854296e-05  -3.2498303915541218e-05  -7.6100243562014056e-05  -8.8850344510793094e-05  -6.9098750654474921e-05  -2.9128663182188466e-05  -2.8950808491677842e-04  -2.9109532452284556e-04  -3.1736865838326192e-04  -2.9875442708850126e-04  -3.2575508202524505e-04  -2.1114307564925827e-04  -2.5609708131606065e-04  -2.1693661875112050e-04  -2.4478714168273054e-04  -2.6226250768852406e-04  -2.7323843184172349e-04  -8.3731129815044634e-05  -1.7595887507758718e-05  -2.7300082837150665e-05  -2.8029320838987332e-04  -3.0488478198784834e-04  -3.0096556394955957e-04  -2.4463945604468921e-04  -2.3697209273768015e-04  -2.5584351022655015e-04  -2.4390379051393912e-04  -2.6992282426205029e-04  -2.5894119648336332e-04  -2.4240029740184603e-04  -2.7591358080602965e-04  -8.2285643660640252e-05  -1.4402299442584332e-04  -3.9497231447715138e-05  -2.4195130433136224e-04  -3.2664642974829559e-04  -1.9114608910001266e-04  -3.2015988851316197e-05  -2.5698405410295544e-04  -2.8868219531828630e-04  -4.5014704635342912e-05  -6.4013364524633459e-05  -3.0945278989333361e-05  -5.5365154921143760e-05  -2.5152605106002060e-04  -2.7460096959614990e-04  -3.0953428855534621e-04  -3.3037493806373089e-04  -3.1026026501157098e-04  -3.2938229443230002e-04  -2.8500786151519798e-0