<?xml version="1.0"?>
<VTKFile type="UnstructuredGrid"  version="0.1"  >
<UnstructuredGrid>
<Piece  NumberOfPoints="1078" NumberOfCells="2058">
<Points>
<DataArray  type="Float64"  NumberOfComponents="3"  format="ascii">0 0 0  0 1 0  1 1 0  1 0 0  1.1 -0.1 0  -0.1 -0.1 0  1.1 1.1 0  -0.1 1.1 0  0.5281992941240889 0.5880595059687849 0  0 0.9499999999997918 0  0 0.8999999999995836 0  0 0.8499999999996529 0  0 0.7999999999999998 0  0 0.7500000000003466 0  0 0.7000000000006934 0  0 0.6500000000010401 0  0 0.6000000000013869 0  0 0.5500000000017335 0  0 0.5000000000020587 0  0 0.4500000000018723 0  0 0.4000000000016644 0  0 0.3500000000014564 0  0 0.3000000000012483 0  0 0.2500000000010403 0  0 0.2000000000008322 0  0 0.1500000000006241 0  0 0.100000000000416 0  0 0.05000000000020799 0  0.04999999999989965 0 0  0.09999999999981467 0 0  0.1499999999997036 0 0  0.1999999999995579 0 0  0.2499999999994121 0 0  0.2999999999992664 0 0  0.3499999999991206 0 0  0.3999999999989749 0 0  0.4499999999988292 0 0  0.4999999999986943 0 0  0.5499999999988151 0 0  0.5999999999989468 0 0  0.6499999999990784 0 0  0.69999999999921 0 0  0.7499999999993417 0 0  0.7999999999994734 0 0  0.8499999999996051 0 0  0.8999999999997368 0 0  0.9499999999998684 0 0  1 0.04999999999989965 0  1 0.09999999999981467 0  1 0.1499999999997036 0  1 0.1999999999995579 0  1 0.2499999999994121 0  1 0.2999999999992664 0  1 0.3499999999991206 0  1 0.3999999999989749 0  1 0.4499999999988292 0  1 0.4999999999986943 0  1 0.5499999999988151 0  1 0.5999999999989468 0  1 0.6499999999990784 0  1 0.69999999999921 0  1 0.7499999999993417 0  1 0.7999999999994734 0  1 0.8499999999996051 0  1 0.8999999999997368 0  1 0.9499999999998684 0  0.9499999999997918 1 0  0.8999999999995836 1 0  0.8499999999996529 1 0  0.7999999999999998 1 0  0.7500000000003466 1 0  0.7000000000006934 1 0  0.6500000000010401 1 0  0.6000000000013869 1 0  0.5500000000017335 1 0  0.5000000000020587 1 0  0.4500000000018723 1 0  0.4000000000016644 1 0  0.3500000000014564 1 0  0.3000000000012483 1 0  0.2500000000010403 1 0  0.2000000000008322 1 0  0.1500000000006241 1 0  0.100000000000416 1 0  0.05000000000020799 1 0  -0.1 1.05000000000004 0  -0.1 1.000000000000079 0  -0.1 0.9500000000001624 0  -0.1 0.9000000000003032 0  -0.1 0.850000000000444 0  -0.1 0.8000000000005848 0  -0.1 0.7500000000007256 0  -0.1 0.7000000000008665 0  -0.1 0.6500000000010508 0  -0.1 0.6000000000012352 0  -0.1 0.5500000000014196 0  -0.1 0.500000000001539 0  -0.1 0.4500000000014195 0  -0.1 0.4000000000013 0  -0.1 0.3500000000011588 0  -0.1 0.3000000000010178 0  -0.1 0.2500000000008986 0  -0.1 0.2000000000007579 0  -0.1 0.1500000000006174 0  -0.1 0.1000000000005272 0  -0.1 0.05000000000040083 0  -0.1 2.671196597248127e-13 0  -0.1 -0.0499999999998666 0  -0.0500000000000906 -0.1 0  -1.730560139634463e-13 -0.1 0  0.04999999999975802 -0.1 0  0.09999999999961506 -0.1 0  0.1499999999994613 -0.1 0  0.199999999999302 -0.1 0  0.2499999999991446 -0.1 0  0.2999999999990088 -0.1 0  0.3499999999988296 -0.1 0  0.3999999999986936 -0.1 0  0.4499999999985143 -0.1 0  0.4999999999984002 -0.1 0  0.5499999999985247 -0.1 0  0.5999999999986493 -0.1 0  0.6499999999987955 -0.1 0  0.6999999999989417 -0.1 0  0.7499999999990659 -0.1 0  0.7999999999992116 -0.1 0  0.8499999999993573 -0.1 0  0.8999999999994526 -0.1 0  0.949999999999584 -0.1 0  0.9999999999997226 -0.1 0  1.049999999999861 -0.1 0  1.1 -0.0500000000000906 0  1.1 -1.730560139634463e-13 0  1.1 0.04999999999975802 0  1.1 0.09999999999961506 0  1.1 0.1499999999994613 0  1.1 0.199999999999302 0  1.1 0.2499999999991446 0  1.1 0.2999999999990088 0  1.1 0.3499999999988296 0  1.1 0.3999999999986936 0  1.1 0.4499999999985143 0  1.1 0.4999999999984002 0  1.1 0.5499999999985247 0  1.1 0.5999999999986493 0  1.1 0.6499999999987955 0  1.1 0.6999999999989417 0  1.1 0.7499999999990659 0  1.1 0.7999999999992116 0  1.1 0.8499999999993573 0  1.1 0.8999999999994526 0  1.1 0.949999999999584 0  1.1 0.9999999999997226 0  1.1 1.049999999999861 0  1.05000000000004 1.1 0  1.000000000000079 1.1 0  0.9500000000001624 1.1 0  0.9000000000003032 1.1 0  0.850000000000444 1.1 0  0.8000000000005848 1.1 0  0.7500000000007256 1.1 0  0.7000000000008665 1.1 0  0.6500000000010508 1.1 0  0.6000000000012352 1.1 0  0.5500000000014196 1.1 0  0.500000000001539 1.1 0  0.4500000000014195 1.1 0  0.4000000000013 1.1 0  0.3500000000011588 1.1 0  0.3000000000010178 1.1 0  0.2500000000008986 1.1 0  0.2000000000007579 1.1 0  0.1500000000006174 1.1 0  0.1000000000005272 1.1 0  0.05000000000040083 1.1 0  2.671196597248127e-13 1.1 0  -0.0499999999998666 1.1 0  0.5637440021185333 0.5814137392686757 0  0.5949374177173987 0.5591860209227277 0  0.6069285330603165 0.5229980879184013 0  0.6091753951806106 0.4869877178856263 0  0.6080230673100202 0.451521475444912 0  0.6036846322474144 0.4165686989863671 0  0.5958563941473299 0.3821571857201354 0  0.5836075979228597 0.3488196988447158 0  0.5643345020142949 0.3182277143148082 0  0.5342476745662033 0.2975039951384424 0  0.4996357440037556 0.2970797675660925 0  0.4679595106887324 0.3064180847154838 0  0.4384467301029413 0.318805235602311 0  0.4099873385639795 0.3327313858793975 0  0.3823498488544688 0.3477026456269106 0  0.3554253350718791 0.3634570430250572 0  0.3291381572237601 0.379848577133348 0  0.3035728739083429 0.3968011538805368 0  0.2786999078026526 0.4143264900182349 0  0.2547147018247002 0.4327488207973954 0  0.2322200104038976 0.4529322296095734 0  0.2134043087435503 0.4772469218995817 0  0.2179007252488357 0.506795585396732 0  0.2437553598874025 0.525827778792758 0  0.2722026547395308 0.5393998253609669 0  0.3017218025942431 0.5505423841006789 0  0.3320627010866696 0.560144111704071 0  0.3631107142781829 0.5685032793324072 0  0.394795385516983 0.5755797894312827 0  0.4271444826548216 0.5813409058425957 0  0.460095795953988 0.5857394995270219 0  0.4936929888159601 0.5882866104014437 0  0.5755902131885664 0.4379339241690919 0  0.4113006150870406 0.3695620302330062 0  0.4528370559858911 0.5502445170056944 0  0.3319811218444725 0.4145376710445793 0  0.3829243205940843 0.5414732936338589 0  0.4690460953211099 0.3438284660354539 0  0.5149045507887827 0.5549513891071803 0  0.32253959778525 0.5256199784939409 0  0.560371913083802 0.3727547437397706 0  0.283543881805602 0.4495485680407449 0  0.5757352947629426 0.5059019774060149 0  0.526599486295848 0.3254980051338205 0  0.2660696995587419 0.503628769033437 0  0.2394185123665889 0.4888362069016862 0  0.5705810909508757 0.5418478525620972 0  0.5389308139025214 0.5252351672372789 0  0.5482036710589956 0.4865545300403666 0  0.5155202896944457 0.4997745300836738 0  0.5210482693803052 0.4646197803591563 0  0.4891528659312609 0.4766595572191387 0  0.4945768592641158 0.4406355524927869 0  0.4627922002458253 0.4527291980634331 0  0.4673365949015873 0.4168747821475488 0  0.4361905898042401 0.4285111645478439 0  0.4314276398840174 0.464442065721091 0  0.4054336763486647 0.4397570709525591 0  0.4989462016381191 0.4048624550895889 0  0.4008255020440745 0.4752315687895668 0  0.3764708707321611 0.4508537812847593 0  0.3720587043665385 0.4845176787980593 0  0.4253877581294712 0.5006011786007741 0  0.3814957858634996 0.416368824390462 0  0.3481240679238036 0.4613007129725333 0  0.4798875145283014 0.51575976765525 0  0.469961490949714 0.3811392218381812 0  0.4986552453696999 0.3690413532340374 0  0.5249620902929297 0.4303863206426791 0  0.4571674892998575 0.4889149939012146 0  0.5339271471203673 0.3956786520355867 0  0.4394350162488708 0.3931452631712732 0  0.4097473948843527 0.4048305721955897 0  0.4185877824949068 0.5397042663198224 0  0.3524174493409128 0.5344465010746436 0  0.4846746439459952 0.5539167323807466 0  0.306741736415067 0.4306633864804287 0  0.3155035937593922 0.4655511688156647 0  0.4398300113470658 0.3565777565885659 0  0.3423708722521807 0.4977015491617602 0  0.2938377457779723 0.5166815964628186 0  0.2607679121481676 0.4684519175796332 0  0.382776160801708 0.3827395371275198 0  0.5704507298701148 0.404836682810708 0  0.5779939489009811 0.4709537387300609 0  0.3966451598558913 0.5090070400886491 0  0.28711810714889 0.4834478162834459 0  0.5530310801025113 0.3457640711651744 0  0.3564864629747894 0.3974337781797845 0  0.4987016882520579 0.334256826895565 0  0.4484232906477814 0.5189627108416266 0  0.5292941238102669 0.3601408181122377 0  0.5502567066116427 0.4534417119938199 0  0.3123979336081553 0.4978406839170282 0  0.3550269234031297 0.4294767071588778 0  0.5058824421164632 0.5287637078247243 0  0.5425700810903655 0.5587450691098687 0  0.3693813452046827 0.5134703965347968 0  0.5511392042692905 0.424490424737096 0  0.3291526408790228 0.4407953353230765 0  0.6043663595784384 0.3619450745525535 0  0.6250869843915849 0.469686642159957 0  0.3447969677972935 0.5812571675508108 0  0.5431683740105233 0.6007940107643253 0  0.986488884812074 0.7060626784656844 0  0.6481413655140673 0.9882946807057261 0  0.4403265650702236 0.6010868512272898 0  0.9940948758928962 0.5414394944882305 0  0.9845775777568867 0.2759374128144612 0  0.2875180521505801 0.977431071648408 0  0.3323155204104337 0.3539691919853077 0  0.4142826644446005 0.3075117430948631 0  0.4443666603977454 0.9859129813153393 0  0.2549936365138915 0.5489976766677255 0  0.05919327293415076 0.7559996067610367 0  0.7107181192908656 0.04522079413396772 0  0.2547384195350806 0.4058839710884938 0  0.6165650416937862 0.5418989411264973 0  0.8047253374073049 0.9873330834137298 0  0.2407916868929839 0.04835332903234891 0  0.05908572628896841 0.2377314411215296 0  0.2113423702798047 0.4478593356921725 0  0.5608343667776969 0.04920357228177313 0  0.4018442012825749 0.04657103149252389 0  0.8532144554989756 0.04283953735246165 0  0.1984948264691825 0.4933237482407934 0  0.4783182675619412 0.286457579522297 0  0.05512617110212832 0.6008605181705664 0  0.99014045912938 0.8528187666905025 0  0.05430205683637577 0.3372367509464553 0  0.6067117400598464 0.57107105625232 0  0.6292192137534438 0.5571307210258163 0  0.6210310311
[...]
<PointData  Scalars="v"> 
<DataArray  type="Float64"  Name="v"  format="ascii">0.0000000000000000e+00  0.0000000000000000e+00  0.0000000000000000e+00  0.0000000000000000e+00  0.0000000000000000e+00  0.0000000000000000e+00  0.0000000000000000e+00  0.0000000000000000e+00  5.9234632793486114e-03  0.0000000000000000e+00  0.0000000000000000e+00  0.0000000000000000e+00  0.0000000000000000e+00  0.0000000000000000e+00  0.0000000000000000e+00  0.0000000000000000e+00  0.0000000000000000e+00  0.0000000000000000e+00  0.0000000000000000e+00  0.0000000000000000e+00  0.0000000000000000e+00  0.0000000000000000e+00  0.0000000000000000e+00  0.0000000000000000e+00  0.0000000000000000e+00  0.0000000000000000e+00  0.0000000000000000e+00  0.0000000000000000e+00  0.0000000000000000e+00  0.0000000000000000e+00  0.0000000000000000e+00  0.0000000000000000e+00  0.0000000000000000e+00  0.0000000000000000e+00  0.0000000000000000e+00  0.0000000000000000e+00  0.0000000000000000e+00  0.0000000000000000e+00  0.0000000000000000e+00  0.0000000000000000e+00  0.0000000000000000e+00  0.0000000000000000e+00  0.0000000000000000e+00  0.0000000000000000e+00  0.0000000000000000e+00  0.0000000000000000e+00  0.0000000000000000e+00  0.0000000000000000e+00  0.0000000000000000e+00  0.0000000000000000e+00  0.0000000000000000e+00  0.0000000000000000e+00  0.0000000000000000e+00  0.0000000000000000e+00  0.0000000000000000e+00  0.0000000000000000e+00  0.0000000000000000e+00  0.0000000000000000e+00  0.0000000000000000e+00  0.0000000000000000e+00  0.0000000000000000e+00  0.0000000000000000e+00  0.0000000000000000e+00  0.0000000000000000e+00  0.0000000000000000e+00  0.0000000000000000e+00  0.0000000000000000e+00  0.0000000000000000e+00  0.0000000000000000e+00  0.0000000000000000e+00  0.0000000000000000e+00  0.0000000000000000e+00  0.0000000000000000e+00  0.0000000000000000e+00  0.0000000000000000e+00  0.0000000000000000e+00  0.0000000000000000e+00  0.0000000000000000e+00  0.0000000000000000e+00  0.0000000000000000e+00  0.0000000000000000e+00  0.0000000000000000e+00  0.0000000000000000e+00  0.0000000000000000e+00  0.0000000000000000e+00  0.0000000000000000e+00  0.0000000000000000e+00  0.0000000000000000e+00  0.0000000000000000e+00  0.0000000000000000e+00  0.0000000000000000e+00  0.0000000000000000e+00  0.0000000000000000e+00  0.0000000000000000e+00  0.0000000000000000e+00  0.0000000000000000e+00  0.0000000000000000e+00  0.0000000000000000e+00  0.0000000000000000e+00  0.0000000000000000e+00  0.0000000000000000e+00  0.0000000000000000e+00  0.0000000000000000e+00  0.0000000000000000e+00  0.0000000000000000e+00  0.0000000000000000e+00  0.0000000000000000e+00  0.0000000000000000e+00  0.0000000000000000e+00  0.0000000000000000e+00  0.0000000000000000e+00  0.0000000000000000e+00  0.0000000000000000e+00  0.0000000000000000e+00  0.0000000000000000e+00  0.0000000000000000e+00  0.0000000000000000e+00  0.0000000000000000e+00  0.0000000000000000e+00  0.0000000000000000e+00  0.0000000000000000e+00  0.0000000000000000e+00  0.0000000000000000e+00  0.0000000000000000e+00  0.0000000000000000e+00  0.0000000000000000e+00  0.0000000000000000e+00  0.0000000000000000e+00  0.0000000000000000e+00  0.0000000000000000e+00  0.0000000000000000e+00  0.0000000000000000e+00  0.0000000000000000e+00  0.0000000000000000e+00  0.0000000000000000e+00  0.0000000000000000e+00  0.0000000000000000e+00  0.0000000000000000e+00  0.0000000000000000e+00  0.0000000000000000e+00  0.0000000000000000e+00  0.0000000000000000e+00  0.0000000000000000e+00  0.0000000000000000e+00  0.0000000000000000e+00  0.0000000000000000e+00  0.0000000000000000e+00  0.0000000000000000e+00  0.0000000000000000e+00  0.0000000000000000e+00  0.0000000000000000e+00  0.0000000000000000e+00  0.0000000000000000e+00  0.0000000000000000e+00  0.0000000000000000e+00  0.0000000000000000e+00  0.0000000000000000e+00  0.0000000000000000e+00  0.0000000000000000e+00  0.0000000000000000e+00  0.0000000000000000e+00  0.0000000000000000e+00  0.0000000000000000e+00  0.0000000000000000e+00  0.0000000000000000e+00  0.0000000000000000e+00  0.0000000000000000e+00  0.0000000000000000e+00  0.0000000000000000e+00  0.0000000000000000e+00  0.0000000000000000e+00  0.0000000000000000e+00  0.0000000000000000e+00  0.0000000000000000e+00  0.0000000000000000e+00  0.0000000000000000e+00  0.0000000000000000e+00  5.9866975172552734e-03  6.0764947312200212e-03  5.8576215840499320e-03  5.7709728600685763e-03  5.6717525353118994e-03  5.5173989738715682e-03  5.3174405843429851e-03  5.1097643483307672e-03  4.8867169939411353e-03  4.7783676611165352e-03  4.6054433867380720e-03  4.5971977760872612e-03  4.6177207541518413e-03  4.6013951288181977e-03  4.5601519968867616e-03  4.4816531014169802e-03  4.3586887764811202e-03  4.2022925835662065e-03  4.0043230508175409e-03  3.7817354757688432e-03  3.5690768886647850e-03  3.5218589060916584e-03  3.6241059885555866e-03  3.8357346319988135e-03  4.1944389530959659e-03  4.5516638838353088e-03  4.8725605395412881e-03  5.1642359527362472e-03  5.3863517966723793e-03  5.5798690783023380e-03  5.7495245172484687e-03  5.8808850247828084e-03  4.7588712414791436e-03  4.0894310660849033e-03  4.8002655164334643e-03  3.8222113236232864e-03  4.4762162400988860e-03  4.1138079366338804e-03  4.9243174346599019e-03  3.9935991520717914e-03  4.4237680583352843e-03  3.4905745561684015e-03  4.9003143142641323e-03  4.1121989244372126e-03  3.4008274037293658e-03  3.1785681972728783e-03  4.9667256289945613e-03  4.9063897143091281e-03  4.8969909703251453e-03  4.9649040123515634e-03  4.8909390820801200e-03  4.8858917267264219e-03  4.7722090030202389e-03  4.7263184020014826e-03  4.6031253731083736e-03  4.5381093476962019e-03  4.6471426035140442e-03  4.4275189837669499e-03  4.6263086689608598e-03  4.5176575717679711e-03  4.2849200529876371e-03  4.3403006947057036e-03  4.6798622294724201e-03  4.1513362358060564e-03  4.1037815614874719e-03  4.8921135167012504e-03  4.3864412601578601e-03  4.3546515794651011e-03  4.7511089107008624e-03  4.8138037476281167e-03  4.5491897513168502e-03  4.3460700455996747e-03  4.2654691034842689e-03  4.5974825591794943e-03  4.2470655266370434e-03  4.8902474623383901e-03  3.6804908267102435e-03  3.8091282289851452e-03  4.1166306418296602e-03  4.1057190360012418e-03  3.7236867074853324e-03  3.2855094103778249e-03  4.0335914419117108e-03  4.6181668278928835e-03  4.8637393988066697e-03  4.5057850738522776e-03  3.5367298682673753e-03  4.3330868600271301e-03  3.9452981428381691e-03  4.0794148439535077e-03  4.7766600207248076e-03  4.2921509553353982e-03  4.8026910085921266e-03  3.8297958446656139e-03  4.0207425281021834e-03  4.9230001745592779e-03  5.0377609023041095e-03  4.3215565504243110e-03  4.6840320758235509e-03  3.8627246770458964e-03  5.7948239989415139e-03  6.4285099509641527e-03  5.6880008279344349e-03  6.6449522851404503e-03  3.9494622951603429e-04  3.8068450562377934e-04  6.4559803860488856e-03  2.2694877353466586e-04  3.9479416904266573e-04  5.5604344478461982e-04  4.9045926351117776e-03  5.1243310663639996e-03  4.8596197103077741e-04  4.5188976878274521e-03  1.0125995024153093e-03  9.5356883553097125e-04  4.3075426167926154e-03  6.5642936338904242e-03  2.6703892566116815e-04  7.7199395692070457e-04  8.8375889033618228e-04  3.7998108119984648e-03  1.2153322952101378e-03  1.0778241130049116e-03  5.3170920628796252e-04  3.6830436738442690e-03  5.0264626698290132e-03  1.2486778724012954e-03  1.7047414046086212e-04  1.0666203016829760e-03  6.6788425994071315e-03  6.8199281192754943e-03  6.8404087230259838e-03  6.7672931629446410e-03  6.7257841288844069e-03  6.5480200578431000e-03  6.4489870698244689e-03  6.2234406020779147e-03  6.0801101647362755e-03  6.2818426077291649e-03  6.2797783430514429e-03  5.8702636954161393e-03  6.0263165923096444e-03  5.7721981627940995e-03  5.5843704845573326e-03  5.6796544074720198e-03  5.2090703728347064e-03  5.0857643989633289e-03  5.2479574603082318e-03  5.6861767825838868e-03  5.1901483698504752e-03  5.5985413947940640e-03  5.0460376973225449e-03  5.4201467112806436e-03  4.8289140365008762e-03  5.1667730828114586e-03  4.6861618252475052e-03  4.5335765707431612e-03  4.5433503050093874e-03  4.8340130200521646e-03  4.6138221034326245e-03  4.1071844504870008e-03  3.9338210947439025e-03  4.1907142043224651e-03  4.4324717070445057e-03  3.4925576387854311e-03  3.3099781053183230e-03  3.6752044658498123e-03  5.0315993203216627e-03  4.5808009979092538e-03  3.9840294778677576e-03  4.0867670191101317e-03  3.5000550576721628e-03  3.0343404231826885e-03  3.3190937453178035e-03  4.6205253753001845e-03  4.0839474337023250e-03  3.5904937781666975e-03  5.7198731833465006e-03  4.5465669223422982e-03  3.9660109080102736e-03  3.8579278277173124e-03  2.6805451611956353e-03  5.5496242874534835e-04  2.4044994797637986e-03  4.3398033084547622e-04  1.5340605763080803e-04  2.6690155996206657e-04  3.7095485594843257e-04  5.0392998468501019e-03  3.8436372013537843e-03  3.5689824166322969e-03  3.6980657226882395e-03  3.2886823316820319e-03  3.1856263256456784e-03  3.3741193278912247e-03  6.8489154572471730e-03  2.9709064722286539e-03  3.5137809033213541e-03  3.4960487332218702e-03  5.7066818453616291e-04  3.3497221620571154e-03  2.9815334456794748e-03  4.3555752892549910e-03  3.8357769197054793e-03  3.4503891800450560e-03  2.0707535384934641e-03  2.9071055938422819e-03  6.0446407342991913e-03  2.8399001429304277e-03  2.8252866910219881e-03  4.0775591707226579e-03  3.5531469121397301e-03  2.8777309538064646e-03  3.0072085013178838e-03  3.6700554882631155e-03  3.0747857865826124e-03  3.7253067219530128e-03  3.0887987773766949e-03  3.7204007927674940e-03  3.0258448225079781e-03  3.6383944690853570e-03  2.9198975503755553e-03  3.4923799564162716e-03  4.1949939696680292e-03  4.0102198568671959e-03  3.3150171852524930e-03  3.7793866586726494e-03  4.4441377786720105e-03  4.1702491522728966e-03  3.5078202433955334e-03  3.8404586426333447e-03  3.1969874706452993e-03  3.4509934241732741e-03  4.0700896975206825e-03  2.8648605407434885e-03  3.6144289367394948e-03  5.2553775350162937e-03  4.1855082056167980e-03  4.7280406851862647e-03  3.6746931842856303e-03  4.1891380798371241e-03  3.6235932844172775e-03  4.0844178505106766e-03  3.1576661109544327e-03  2.8454427126307115e-03  4.7104547084590330e-03  3.4673652669906857e-03  3.9671714944585507e-03  3.1228110501596838e-03  2.7602103184164836e-03  2.4037326011600775e-03  1.7522954310537176e-04  1.8018846244079723e-03  1.5064277479234531e-03  4.3507733725161269e-03  5.1226809106844559e-03  5.1823720478793535e-03  4.9802375505275812e-03  5.3651700861546926e-03  1.6763535670230234e-03  2.3695098874683290e-03  3.0652804589415762e-03  2.6133384631370094e-03  2.9288794977380640e-03  6.7621555714129965e-03  2.3028499042389693e-03  2.9138689265425350e-03  2.9145456389221367e-03  2.3008919572532777e-03  3.4534504445199194e-03  2.7178101210854353e-03  3.2355222974877872e-03  3.6117312038514162e-03  3.1069360568444491e-03  2.6740698867100451e-03  2.2953006519486410e-03  2.1732107796565113e-03  3.0096350954819627e-03  5.2019617681992015e-04  2.3896988209658756e-03  2.9366731040985109e-03  2.3991782296837955e-03  2.8688916240624004e-03  3.9322350594348894e-03  5.0913802755620683e-03  2.2240754169519793e-03  2.3002808768164003e-03  2.4269811320055154e-03  2.1716395389352870e-03  1.2585474105369081e-03  1.4419045113449149e-03  1.0310233419421526e-03  6.3623455618870665e-03  1.8449127792692741e-03  1.9271266318235762e-03  3.0031716564297845e-03  4.7938129831268132e-03  5.0593185601300224e-03  5.3571917958831440e-03  5.5949484932152349e-03  5.8435694641603949e-03  6.0478330548664290e-03  5.7726105639426687e-03  6.2665147615112247e-03  6.0226668027473758e-03  6.3607143420396179e-03  6.1047598556537037e-03  5.7255728684103375e-03  5.8150050745096500e-03  2.9038849496031216e-03  3.2683844638660073e-03  2.4964949396782811e-03  2.1331319712170613e-04  2.6509722133482926e-04  5.2989574522579637e-03  4.8915304021518455e-03  3.9136902855549825e-03  3.5587433166730646e-03  2.9126247578034011e-03  3.1987742032688706e-03  3.8097408418792671e-03  3.4402461053868408e-03  4.1109745826606019e-03  3.6472662219906326e-03  4.2055307420531167e-03  3.7608201271122623e-03  3.1995500424452606e-03  3.2976858131112318e-03  3.8201093295402101e-03  3.3318487046150157e-03  3.7946587284801714e-03  3.2827022371645031e-03  3.6809329382783865e-03  3.1432253027018180e-03  2.7516535070719627e-03  3.4790620655272136e-03  2.9168152171434418e-03  2.7081510369528672e-03  3.1884307271894214e-03  2.6098240728179966e-03  2.3778907742122240e-03  4.3717228537477433e-03  4.0226451792529918e-03  2.7587747032670746e-03  5.6142060805129471e-03  1.9832704070677346e-03  1.5699606671362560e-03  1.6639751691203623e-03  1.7178074787799387e-03  2.8285968734512354e-03  3.4663961600192401e-03  2.2037839772179693e-03  3.3432221898019457e-03  2.8772463479918050e-03  1.8853487337447555e-03  5.4145139943150072e-03  4.6172722057320273e-03  4.6920717475928651e-03  6.3203117898234457e-03  6.4356151228000561e-03  1.7823894839353108e-03  1.1519710688837812e-03  5.4585595190422154e-03  1.3232598837379208e-04  2.6595690118237062e-03  2.2288313739706428e-03  1.9529761346505647e-03  1.5732510715533612e-03  3.3677253720575747e-03  4.9195242148804014e-03  2.5572751956218776e-03  2.0530288634529759e-03  2.2087568844598848e-03  1.4249851122244586e-03  1.4533067235513297e-03  1.0346521069981012e-03  9.7657924935587058e-04  1.2387058633064672e-03  9.3952590112863750e-04  1.0408620446466354e-03  1.5877639626974396e-03  1.4689162018664548e-03  2.0425494313661930e-03  1.3378331667928977e-03  1.8698740605348444e-03  1.1921524302187499e-03  1.6889401089467432e-03  4.2799558544975641e-03  4.3779059012007751e-03  3.9842326507048016e-03  4.7220863411136247e-03  4.7726012563817305e-03  5.1428713469641920e-03  5.1614085504730579e-03  5.5157784544216442e-03  5.5195200461181163e-03  5.8659963655494163e-03  5.8201999337208748e-03  6.1745001564873676e-03  6.1053573257302748e-03  6.4392724305529815e-03  6.3170796313956178e-03  6.6687587779167279e-03  6.4554592539406526e-03  6.7442405812094264e-03  6.4902636178571626e-03  6.7667038320370423e-03  6.0623989587260648e-03  6.9000550329369505e-03  6.9163568301367868e-03  6.7283816318266165e-03  6.8828003553672405e-03  2.7682759193886296e-03  1.8615470745011920e-03  3.4940482303493004e-03  1.7908940787913896e-03  6.3656422630299471e-03  5.0385572078687551e-03  2.4242272368610873e-03  2.4942877909133101e-03  1.3564841225002055e-03  3.3732378303041998e-03  5.1553585862346759e-03  1.6053646145533335e-03  1.7271985594116070e-03  4.7544089516845817e-03  4.9792097448786510e-03  2.9906929976491491e-03  3.7647740345555102e-03  5.3534509591632489e-03  7.3749704301153719e-04  2.2680086383053554e-03  1.2624472644722510e-03  6.1738741281200274e-04  6.8329922058019896e-03  6.5849500554626922e-04  5.3020746866742127e-03  1.5867162380225662e-03  1.7463430817793021e-03  2.2874289475571718e-03  1.8069992568978065e-03  1.2649307499270892e-03  6.4959495571188979e-03  1.9219960230400686e-03  6.0547741597322584e-03  5.7145022467251618e-03  6.6814045885328051e-03  4.6993982720001277e-03  1.3791107436338706e-03  6.0737158316032536e-04  6.7926186773485386e-03  1.0566485965848985e-03  1.6584834327098251e-03  1.0312355562137135e-03  6.6622308037173478e-03  6.5747392115268789e-03  6.7109806409878583e-03  4.9177799380508043e-03  4.6313380471867385e-03  5.0664214489314768e-03  1.2692769063500870e-03  1.6181869165292477e-03  9.5193192633289227e-04  1.2065616867074106e-03  4.7654196356772417e-03  1.0471502141223348e-03  1.4877941600713871e-03  8.7962528449133260e-04  1.2578119913046306e-03  1.8452356392650148e-03  1.5545743113164541e-03  1.0188770876481249e-03  1.2199654632885635e-03  1.7484028071017845e-03  7.6076417413106800e-04  1.3215297815457371e-03  1.8176693068777305e-03  1.2752173282027616e-03  1.7393207952290798e-03  2.2875305027020799e-03  6.5854968785250510e-03  4.0528739672654208e-03  4.1245605195079360e-03  4.3556130608391180e-03  3.8339491216264040e-03  4.6248128094373165e-03  4.2797330745202363e-03  4.7068492791021398e-03  4.5600202070836615e-03  4.3342609335781639e-03  4.6853089790012395e-03  4.9161124431498747e-03  5.5826597270893022e-03  2.1261076644328108e-03  1.6970110634732150e-03  2.0488366697666255e-03  1.8342821113712681e-03  1.2677866791796573e-03  4.6783117809137626e-03  6.0154594477860278e-03  3.3486712207289420e-04  1.1598973394931361e-03  3.8330904671313362e-03  9.8905703355877663e-04  1.5615968482899810e-03  1.3221021241682830e-03  7.2770874926911917e-04  1.0978373055361469e-03  1.6359066844160836e-03  1.2738286171902085e-03  8.3042565621088194e-04  4.1243685127509118e-04  1.8645384999532372e-03  5.1860246283631966e-03  5.5545613410704769e-03  5.4160195617348091e-03  4.4749887309210130e-03  1.1319954056245838e-03  4.5377896014973758e-03  3.0794961528050431e-03  3.2399064633980750e-03  5.1393132740813145e-03  4.6794335881598908e-03  4.9429644933179284e-03  4.3352197373906038e-03  4.9310893300474326e-03  4.8955875701558764e-03  5.4421740665375837e-03  5.4250577194790072e-03  5.3687046238889494e-03  4.8018472887422286e-03  5.2607295268384726e-03  5.9140808044137521e-03  4.6706910713590474e-03  6.7655231179188273e-03  5.9280568721985123e-03  6.3787798304214393e-03  3.1364613969125840e-04  9.3743472669855627e-04  5.8991258424895120e-03  3.5941223818085890e-03  4.2090323354351871e-03  5.5437633335219609e-04  2.1237510968533948e-03  4.8114445051950741e-04  5.1873259510044705e-04  2.3365023124000020e-03  2.2219877343823595e-03  1.0890948179684346e-03  1.0278410652185366e-03  1.5038354429746227e-03  4.2851337300741036e-03  5.0953115318316576e-03  5.0317856572750751e-03  5.0276205427931741e-03  5.0710190233556052e-03  5.6166291403462855e-03  6.6895040545939021e-04  1.0378321320016837e-03  1.2161267502935223e-03  4.1917831301471207e-03  1.1259660074230779e-03  1.9384185375372653e-03  1.8100316175074323e-03  7.0963984745658871e-04  6.0629268752747196e-03  1.7789972081716529e-03  4.5492825812560780e-03  6.1910539337576261e-03  2.9518022404275828e-04  4.6065606483937371e-04  4.5627355965935281e-04  2.1911832676993963e-03  5.7829360175681768e-03  4.1706251380581040e-04  4.0861206384717333e-03  2.0417860589366393e-03  1.2115459959171223e-03  3.4751775272793602e-03  2.1676487207523439e-04  2.9685180678752803e-03  1.6364378337521241e-03  3.7800029384414251e-04  2.3481718761181851e-04  7.1942740349724822e-04  4.8817113471111225e-04  3.0385124278756745e-04  4.8786453929179014e-03  4.0013587205120840e-03  2.5950322947435231e-03  6.5923874792021267e-03  3.7414894427044232e-03  1.5656817346896919e-04  4.8725722457472015e-04  1.1074609556418588e-03  4.7834270308411055e-03  2.7687820576466054e-03  5.2830734589101331e-03  1.8554794268654866e-04  8.1465215456720552e-04  7.2243649103057115e-04  1.0323598264194960e-03  1.7742844471177622e-03  2.3412246759498298e-03  3.5695157497816132e-04  4.2947783252385158e-03  2.2579880674434808e-03  6.5455161003474989e-03  6.2059212170900071e-03  4.3013859348249479e-03  1.7556398414703585e-03  3.2794768295847710e-03  1.1675645952888688e-03  6.0007404104131844e-03  2.8065447627117399e-03  2.6748369883169963e-03  5.8900807263047895e-03  1.2155916752094533e-03  1.5977273677734935e-03  2.3967204824473900e-03  2.3732391240179253e-03  4.1811363839561293e-03  3.0807186889478936e-03  5.0528505909216218e-03  2.8688601981894167e-03  4.4320869209789407e-03  1.6778145157177497e-03  1.7811376010304746e-03  5.7320965277829769e-03  4.8229065539812420e-03  3.7828601878083998e-03  6.9231132830006861e-03  6.9051883425259464e-03  6.8082140843375065e-03  5.7227627717417200e-04  5.6763777154308177e-04  1.1789844432912779e-03  3.5791229215329226e-03  3.8151236711048896e-04  1.9510883513861383e-04  1.2738747494665551e-03  3.1048490796561516e-04  1.0271969131407402e-04  3.0197740819887051e-03  1.7834874548134603e-04  6.2517099481754308e-03  1.1018867608003310e-03  2.7614994783456237e-03  6.3079452202393438e-03  6.6364148806266482e-03  5.0562027649868994e-03  5.2327695600370931e-03  5