<?xml version="1.0"?>
<VTKFile type="UnstructuredGrid"  version="0.1"  >
<UnstructuredGrid>
<Piece  NumberOfPoints="1259" NumberOfCells="2420">
<Points>
<DataArray  type="Float64"  NumberOfComponents="3"  format="ascii">0 0 0  0 1 0  1 1 0  1 0 0  1.1 -0.1 0  -0.1 -0.1 0  1.1 1.1 0  -0.1 1.1 0  0.4971968432053858 0.5010087199462739 0  0.6116548662434091 0.7365477384540879 0  0 0.9499999999997918 0  0 0.8999999999995836 0  0 0.8499999999996529 0  0 0.7999999999999998 0  0 0.7500000000003466 0  0 0.7000000000006934 0  0 0.6500000000010401 0  0 0.6000000000013869 0  0 0.5500000000017335 0  0 0.5000000000020587 0  0 0.4500000000018723 0  0 0.4000000000016644 0  0 0.3500000000014564 0  0 0.3000000000012483 0  0 0.2500000000010403 0  0 0.2000000000008322 0  0 0.1500000000006241 0  0 0.100000000000416 0  0 0.05000000000020799 0  0.04999999999989965 0 0  0.09999999999981467 0 0  0.1499999999997036 0 0  0.1999999999995579 0 0  0.2499999999994121 0 0  0.2999999999992664 0 0  0.3499999999991206 0 0  0.3999999999989749 0 0  0.4499999999988292 0 0  0.4999999999986943 0 0  0.5499999999988151 0 0  0.5999999999989468 0 0  0.6499999999990784 0 0  0.69999999999921 0 0  0.7499999999993417 0 0  0.7999999999994734 0 0  0.8499999999996051 0 0  0.8999999999997368 0 0  0.9499999999998684 0 0  1 0.04999999999989965 0  1 0.09999999999981467 0  1 0.1499999999997036 0  1 0.1999999999995579 0  1 0.2499999999994121 0  1 0.2999999999992664 0  1 0.3499999999991206 0  1 0.3999999999989749 0  1 0.4499999999988292 0  1 0.4999999999986943 0  1 0.5499999999988151 0  1 0.5999999999989468 0  1 0.6499999999990784 0  1 0.69999999999921 0  1 0.7499999999993417 0  1 0.7999999999994734 0  1 0.8499999999996051 0  1 0.8999999999997368 0  1 0.9499999999998684 0  0.9499999999997918 1 0  0.8999999999995836 1 0  0.8499999999996529 1 0  0.7999999999999998 1 0  0.7500000000003466 1 0  0.7000000000006934 1 0  0.6500000000010401 1 0  0.6000000000013869 1 0  0.5500000000017335 1 0  0.5000000000020587 1 0  0.4500000000018723 1 0  0.4000000000016644 1 0  0.3500000000014564 1 0  0.3000000000012483 1 0  0.2500000000010403 1 0  0.2000000000008322 1 0  0.1500000000006241 1 0  0.100000000000416 1 0  0.05000000000020799 1 0  -0.1 1.05000000000004 0  -0.1 1.000000000000079 0  -0.1 0.9500000000001624 0  -0.1 0.9000000000003032 0  -0.1 0.850000000000444 0  -0.1 0.8000000000005848 0  -0.1 0.7500000000007256 0  -0.1 0.7000000000008665 0  -0.1 0.6500000000010508 0  -0.1 0.6000000000012352 0  -0.1 0.5500000000014196 0  -0.1 0.500000000001539 0  -0.1 0.4500000000014195 0  -0.1 0.4000000000013 0  -0.1 0.3500000000011588 0  -0.1 0.3000000000010178 0  -0.1 0.2500000000008986 0  -0.1 0.2000000000007579 0  -0.1 0.1500000000006174 0  -0.1 0.1000000000005272 0  -0.1 0.05000000000040083 0  -0.1 2.671196597248127e-13 0  -0.1 -0.0499999999998666 0  -0.0500000000000906 -0.1 0  -1.730560139634463e-13 -0.1 0  0.04999999999975802 -0.1 0  0.09999999999961506 -0.1 0  0.1499999999994613 -0.1 0  0.199999999999302 -0.1 0  0.2499999999991446 -0.1 0  0.2999999999990088 -0.1 0  0.3499999999988296 -0.1 0  0.3999999999986936 -0.1 0  0.4499999999985143 -0.1 0  0.4999999999984002 -0.1 0  0.5499999999985247 -0.1 0  0.5999999999986493 -0.1 0  0.6499999999987955 -0.1 0  0.6999999999989417 -0.1 0  0.7499999999990659 -0.1 0  0.7999999999992116 -0.1 0  0.8499999999993573 -0.1 0  0.8999999999994526 -0.1 0  0.949999999999584 -0.1 0  0.9999999999997226 -0.1 0  1.049999999999861 -0.1 0  1.1 -0.0500000000000906 0  1.1 -1.730560139634463e-13 0  1.1 0.04999999999975802 0  1.1 0.09999999999961506 0  1.1 0.1499999999994613 0  1.1 0.199999999999302 0  1.1 0.2499999999991446 0  1.1 0.2999999999990088 0  1.1 0.3499999999988296 0  1.1 0.3999999999986936 0  1.1 0.4499999999985143 0  1.1 0.4999999999984002 0  1.1 0.5499999999985247 0  1.1 0.5999999999986493 0  1.1 0.6499999999987955 0  1.1 0.6999999999989417 0  1.1 0.7499999999990659 0  1.1 0.7999999999992116 0  1.1 0.8499999999993573 0  1.1 0.8999999999994526 0  1.1 0.949999999999584 0  1.1 0.9999999999997226 0  1.1 1.049999999999861 0  1.05000000000004 1.1 0  1.000000000000079 1.1 0  0.9500000000001624 1.1 0  0.9000000000003032 1.1 0  0.850000000000444 1.1 0  0.8000000000005848 1.1 0  0.7500000000007256 1.1 0  0.7000000000008665 1.1 0  0.6500000000010508 1.1 0  0.6000000000012352 1.1 0  0.5500000000014196 1.1 0  0.500000000001539 1.1 0  0.4500000000014195 1.1 0  0.4000000000013 1.1 0  0.3500000000011588 1.1 0  0.3000000000010178 1.1 0  0.2500000000008986 1.1 0  0.2000000000007579 1.1 0  0.1500000000006174 1.1 0  0.1000000000005272 1.1 0  0.05000000000040083 1.1 0  2.671196597248127e-13 1.1 0  -0.0499999999998666 1.1 0  0.6342214664238888 0.7258846522886667 0  0.6551415884825427 0.7127276807458161 0  0.6740096956181872 0.6968903799684004 0  0.6903654005687331 0.678854101189287 0  0.7039919049117116 0.6588882626044739 0  0.7148789399545956 0.6374252043354501 0  0.7234854599996611 0.6150404697553745 0  0.7291770487629047 0.5916341098589327 0  0.7328837345233974 0.5676760804592793 0  0.7348256936973012 0.5433627467150278 0  0.7348897662252168 0.5188260871000691 0  0.7334592733564738 0.4941985341310063 0  0.7305334911817482 0.4696106735101759 0  0.7261336788928821 0.4452086191559751 0  0.7202509418154898 0.4211063128082608 0  0.7129037763525958 0.3974996912890056 0  0.7040490333689453 0.3745283205881698 0  0.6936223289151772 0.3523718538216435 0  0.681618900253014 0.3311866656737142 0  0.6677429068609261 0.3113365093037698 0  0.6520418130097438 0.2930179717948455 0  0.6344216149185278 0.2765332867178438 0  0.6145714229575524 0.2628399356191326 0  0.5930572925620977 0.251672238359738 0  0.5698860691849759 0.2437054062144121 0  0.5455871091452432 0.2393295960956311 0  0.5207172466840007 0.2382109080676651 0  0.4957738067501792 0.2404649334657789 0  0.4710040561126294 0.245667404332638 0  0.4467077469671634 0.253416109914184 0  0.4231101109526277 0.2635451959163252 0  0.4003531193585653 0.2757470170819506 0  0.3786322036866815 0.2898137439874165 0  0.358175067877874 0.3055309349434457 0  0.3388911343913307 0.3225028085061472 0  0.3214519887913745 0.3407983360017963 0  0.3054418781461691 0.3597593700290668 0  0.2910153024289249 0.3792700078342839 0  0.2781445128123576 0.3990576830837897 0  0.2667803979909583 0.4189797167578579 0  0.2569746426479247 0.4391096633646044 0  0.2489477801137193 0.4595546625210605 0  0.2433014065741629 0.4804015233953197 0  0.2410313434596408 0.5014424513011246 0  0.2414299821321369 0.5214282750054521 0  0.2440519029052065 0.5407982140228372 0  0.2498122412249724 0.5607803135563177 0  0.2580510241618512 0.5805261503247089 0  0.2689234143931452 0.5993465936993995 0  0.2816939058835972 0.6173947139274149 0  0.2958827042555178 0.6350450336984015 0  0.3114833122617737 0.6523492054993383 0  0.328564830999739 0.6690952427115554 0  0.3472586071200722 0.6850837324804172 0  0.3675295246061475 0.6999857158859629 0  0.3891536073619204 0.713539374959542 0  0.4119862065290785 0.725475711058808 0  0.4359097292062444 0.7355738781682634 0  0.4606783091257849 0.7435731411126872 0  0.4860000280621726 0.7489213434026124 0  0.5117067221685412 0.7515970054429756 0  0.5373806417690198 0.7517473869627749 0  0.5627597416249295 0.7492969387919322 0  0.5875784309660755 0.7442359497466587 0  0.3043071175058977 0.6068836782373314 0  0.6301902072211151 0.2993884647424743 0  0.6673440148924203 0.676461263452394 0  0.2907346959148137 0.4228416289655542 0  0.6796762788782814 0.3711802785230897 0  0.5119542300299496 0.260874853676009 0  0.7072501127660642 0.5781965079502671 0  0.3508749215179544 0.6575771797439544 0  0.4095266547806667 0.6996090832615587 0  0.4787313750291106 0.7205145602310373 0  0.593518618868058 0.7187873797687299 0  0.4427866908704332 0.2790383030395132 0  0.7101217072877006 0.505461398141979 0  0.7033730365522735 0.4368895049331314 0  0.2607257038793099 0.4787804178491158 0  0.3298995624091084 0.3663016979718253 0  0.3816681381990247 0.3165453460389028 0  0.269480753461286 0.5622055053385187 0  0.5767786296929017 0.2675293059054535 0  0.5244325509226145 0.728737705530488 0  0.6998124124962748 0.6200291631408184 0  0.659262447637883 0.3325079683434309 0  0.6350224289527138 0.6972428156749617 0  0.2579727634362536 0.5141500792420688 0  0.2795615160703833 0.4420626648401549 0  0.3018765468093351 0.4472792665587991 0  0.3140385108668725 0.428203741997778 0  0.3239583610100804 0.4542568230381047 0  0.3364006255633457 0.4348458119648669 0  0.3484376442677053 0.4628251568951999 0  0.3563588614912791 0.4352428196679959 0  0.3332626422336173 0.4845915590749037 0  0.3595498955523952 0.494899437370698 0  0.3411513463291674 0.5183608500434647 0  0.3692215358262637 0.5311834891792669 0  0.314306129148437 0.5034104853382815 0  0.3212987371996446 0.5380917387311518 0  0.3891538729711114 0.5036752356971871 0  0.3988841600959427 0.5446772368030014 0  0.3746882166873109 0.5770529682481079 0  0.4050751428764939 0.5936112918445888 0  0.2991779675105006 0.5258145397106895 0  0.3025454394756294 0.5545187321348398 0  0.3215340024737124 0.5678646558307566 0  0.433182507814861 0.5602805161692862 0  0.4371468061738905 0.6102341454979595 0  0.4132090531949075 0.6245588503929702 0  0.4434235907660282 0.6474143424122973 0  0.4696758735845375 0.6267076049211326 0  0.4783967844683356 0.6559940252450758 0  0.5036938049781997 0.6424216105976964 0  0.4505577650336631 0.6783936867988518 0  0.2900690423714693 0.4658128972385827 0  0.3249631181404655 0.4095649531188518 0  0.5014226290471295 0.5938589302980268 0  0.5372208578155552 0.6117244017674028 0  0.5357629285205607 0.658452826892579 0  0.5718893908561282 0.637611516000776 0  0.5705126183888382 0.5877093984125263 0  0.6037990710498951 0.6047194476392246 0  0.6030841240965567 0.5643275850991104 0  0.6340735991991485 0.5806893762472427 0  0.6393345484038959 0.5420708279094892 0  0.6034273570420776 0.5241621772357936 0  0.6409520726967123 0.5030956850419488 0  0.6033854855217308 0.4837034780201689 0  0.63939429410146 0.4596536155889242 0  0.603562253
[...]
<PointData  Scalars="v"> 
<DataArray  type="Float64"  Name="v"  format="ascii">0.0000000000000000e+00  0.0000000000000000e+00  0.0000000000000000e+00  0.0000000000000000e+00  0.0000000000000000e+00  0.0000000000000000e+00  0.0000000000000000e+00  0.0000000000000000e+00  3.0865094437675084e-05  7.4688375329033824e-06  0.0000000000000000e+00  0.0000000000000000e+00  0.0000000000000000e+00  0.0000000000000000e+00  0.0000000000000000e+00  0.0000000000000000e+00  0.0000000000000000e+00  0.0000000000000000e+00  0.0000000000000000e+00  0.0000000000000000e+00  0.0000000000000000e+00  0.0000000000000000e+00  0.0000000000000000e+00  0.0000000000000000e+00  0.0000000000000000e+00  0.0000000000000000e+00  0.0000000000000000e+00  0.0000000000000000e+00  0.0000000000000000e+00  0.0000000000000000e+00  0.0000000000000000e+00  0.0000000000000000e+00  0.0000000000000000e+00  0.0000000000000000e+00  0.0000000000000000e+00  0.0000000000000000e+00  0.0000000000000000e+00  0.0000000000000000e+00  0.0000000000000000e+00  0.0000000000000000e+00  0.0000000000000000e+00  0.0000000000000000e+00  0.0000000000000000e+00  0.0000000000000000e+00  0.0000000000000000e+00  0.0000000000000000e+00  0.0000000000000000e+00  0.0000000000000000e+00  0.0000000000000000e+00  0.0000000000000000e+00  0.0000000000000000e+00  0.0000000000000000e+00  0.0000000000000000e+00  0.0000000000000000e+00  0.0000000000000000e+00  0.0000000000000000e+00  0.0000000000000000e+00  0.0000000000000000e+00  0.0000000000000000e+00  0.0000000000000000e+00  0.0000000000000000e+00  0.0000000000000000e+00  0.0000000000000000e+00  0.0000000000000000e+00  0.0000000000000000e+00  0.0000000000000000e+00  0.0000000000000000e+00  0.0000000000000000e+00  0.0000000000000000e+00  0.0000000000000000e+00  0.0000000000000000e+00  0.0000000000000000e+00  0.0000000000000000e+00  0.0000000000000000e+00  0.0000000000000000e+00  0.0000000000000000e+00  0.0000000000000000e+00  0.0000000000000000e+00  0.0000000000000000e+00  0.0000000000000000e+00  0.0000000000000000e+00  0.0000000000000000e+00  0.0000000000000000e+00  0.0000000000000000e+00  0.0000000000000000e+00  0.0000000000000000e+00  0.0000000000000000e+00  0.0000000000000000e+00  0.0000000000000000e+00  0.0000000000000000e+00  0.0000000000000000e+00  0.0000000000000000e+00  0.0000000000000000e+00  0.0000000000000000e+00  0.0000000000000000e+00  0.0000000000000000e+00  0.0000000000000000e+00  0.0000000000000000e+00  0.0000000000000000e+00  0.0000000000000000e+00  0.0000000000000000e+00  0.0000000000000000e+00  0.0000000000000000e+00  0.0000000000000000e+00  0.0000000000000000e+00  0.0000000000000000e+00  0.0000000000000000e+00  0.0000000000000000e+00  0.0000000000000000e+00  0.0000000000000000e+00  0.0000000000000000e+00  0.0000000000000000e+00  0.0000000000000000e+00  0.0000000000000000e+00  0.0000000000000000e+00  0.0000000000000000e+00  0.0000000000000000e+00  0.0000000000000000e+00  0.0000000000000000e+00  0.0000000000000000e+00  0.0000000000000000e+00  0.0000000000000000e+00  0.0000000000000000e+00  0.0000000000000000e+00  0.0000000000000000e+00  0.0000000000000000e+00  0.0000000000000000e+00  0.0000000000000000e+00  0.0000000000000000e+00  0.0000000000000000e+00  0.0000000000000000e+00  0.0000000000000000e+00  0.0000000000000000e+00  0.0000000000000000e+00  0.0000000000000000e+00  0.0000000000000000e+00  0.0000000000000000e+00  0.0000000000000000e+00  0.0000000000000000e+00  0.0000000000000000e+00  0.0000000000000000e+00  0.0000000000000000e+00  0.0000000000000000e+00  0.0000000000000000e+00  0.0000000000000000e+00  0.0000000000000000e+00  0.0000000000000000e+00  0.0000000000000000e+00  0.0000000000000000e+00  0.0000000000000000e+00  0.0000000000000000e+00  0.0000000000000000e+00  0.0000000000000000e+00  0.0000000000000000e+00  0.0000000000000000e+00  0.0000000000000000e+00  0.0000000000000000e+00  0.0000000000000000e+00  0.0000000000000000e+00  0.0000000000000000e+00  0.0000000000000000e+00  0.0000000000000000e+00  0.0000000000000000e+00  0.0000000000000000e+00  0.0000000000000000e+00  0.0000000000000000e+00  0.0000000000000000e+00  0.0000000000000000e+00  0.0000000000000000e+00  0.0000000000000000e+00  0.0000000000000000e+00  0.0000000000000000e+00  0.0000000000000000e+00  0.0000000000000000e+00  0.0000000000000000e+00  0.0000000000000000e+00  0.0000000000000000e+00  0.0000000000000000e+00  7.2197217981438899e-06  8.3060740721799131e-06  1.0847358559278802e-05  1.4341134383818438e-05  1.8867272908619830e-05  2.4024607642537076e-05  2.9907450104598623e-05  3.5818908464319235e-05  4.1256945490257592e-05  4.6404574165607594e-05  5.0517566437338702e-05  5.3632280061362106e-05  5.5358036532435660e-05  5.5034990458858825e-05  5.3221669700494371e-05  5.0141586676164768e-05  4.5704502816792578e-05  4.0364796052302447e-05  3.4379564648547378e-05  2.8264337996748996e-05  2.2311676411047321e-05  1.6950788458389255e-05  1.2491593786717501e-05  9.3284672414172499e-06  7.4471600950108804e-06  7.0784778862692198e-06  8.1157470388779054e-06  1.0436547902919671e-05  1.3743103916786291e-05  1.7793018669410985e-05  2.2273034669363092e-05  2.6732019964270746e-05  3.0741036619840497e-05  3.4038364881002327e-05  3.6862996407257336e-05  3.8006990337690477e-05  3.8518546291684130e-05  3.8159677200514095e-05  3.7052288151977306e-05  3.5514587294642855e-05  3.3874041214158755e-05  3.2311651357503778e-05  3.1173494731558158e-05  3.0440990206355642e-05  3.0435437792457027e-05  3.0558190045873198e-05  3.1352877072858935e-05  3.2938978757057541e-05  3.4820528359829733e-05  3.6632076266037699e-05  3.8293647430425603e-05  3.9738432497586428e-05  4.0625302544245880e-05  4.0591892297773509e-05  3.9633937381022262e-05  3.7743821099563675e-05  3.4967083390721932e-05  3.1393259079227631e-05  2.7244838031676997e-05  2.2900878847382703e-05  1.8560596464114054e-05  1.4631243843148099e-05  1.1342062875867259e-05  8.8526216756051607e-06  3.1793924979870149e-05  1.7966731333024112e-05  1.2161885764111690e-05  3.1235275171301538e-05  3.6116662398705004e-05  9.7833993436984321e-06  3.2028741314026168e-05  3.4262858550360523e-05  3.1132105186848461e-05  2.2077532307464443e-05  9.1049494359028589e-06  1.8303299781387374e-05  4.2987985634642060e-05  4.5233308011612809e-05  2.8325682128288994e-05  3.2475987177797491e-05  2.7761953622600290e-05  2.8720602921554014e-05  9.2597593959075857e-06  1.5804196237566341e-05  2.3712270294997389e-05  2.7324576407298666e-05  9.1980484433647734e-06  2.7346468976912709e-05  3.0146405866957514e-05  3.0013981149802583e-05  3.0812230743675322e-05  3.0626546830801670e-05  3.1121055468146673e-05  3.1182134635754233e-05  3.1366615643644731e-05  3.0661325129311701e-05  3.1141541043995473e-05  3.0865869941498155e-05  3.1403395134851594e-05  2.9710610972728978e-05  3.0206542655789792e-05  3.1311714988276279e-05  3.1430458854614219e-05  3.1998131057961732e-05  3.1789665118054176e-05  2.8841894777220501e-05  2.9407163295438303e-05  3.0653039094557750e-05  3.1008809254814153e-05  3.0221363355087376e-05  3.1493275308906279e-05  2.9036645387491758e-05  2.7755472156762809e-05  2.5802858744514949e-05  2.4361234069388640e-05  2.7163426877813887e-05  2.9029978212113887e-05  3.1301854878183079e-05  2.7371882668415829e-05  2.4526243623771153e-05  2.0500089810894639e-05  2.0234878057337274e-05  2.5868395288103469e-05  2.3693452435413656e-05  2.8889840418493164e-05  2.7834285987447948e-05  3.3212640054471697e-05  3.2580844105238475e-05  3.6985632668177103e-05  3.4509331520376307e-05  3.7965619291759448e-05  3.3999598306540512e-05  3.5549591960026293e-05  3.1204836371302396e-05  3.0072891155184598e-05  2.5975815080119580e-05  2.6504983422197404e-05  2.1340501619092684e-05  2.3855260649530125e-05  2.0616823881765735e-05  1.9805239497821024e-05  2.2231888802487065e-05  2.5706164176634169e-05  2.2089633516700821e-05  2.6187471755159221e-05  2.8047951451480784e-05  2.8826071408305208e-05  2.9974907235875083e-05  2.2599763650968085e-05  3.2065696659010054e-05  1.8595166632771313e-05  1.6194331447443345e-05  4.0168240651948942e-05  2.6564794469514507e-05  3.2282762044507819e-05  3.6571554913128576e-05  1.5859595234905560e-05  1.6447547122155775e-05  3.0353728397134098e-05  3.0560524650469328e-05  2.9669607149624688e-05  4.0306820508182309e-05  4.2415981040749308e-05  2.9994702154824485e-05  1.5193542235434438e-05  1.6684321262045702e-05  1.5225440754242483e-05  1.1856616504013413e-05  1.9643399432852101e-05  1.4790726869308052e-05  3.1735026468424234e-05  3.7275029286312312e-05  3.6010651439643801e-05  1.8555971640613397e-05  1.3882740362855421e-05  1.6807597913546142e-05  1.9557633195004743e-05  2.8363387367842460e-05  2.7552736224357428e-05  2.7002755551116904e-05  2.9508199751480757e-05  2.1221995777358061e-05  2.2842136905970270e-05  3.0182823644341522e-05  2.5128057389910665e-05  2.7627741934141763e-05  3.0298977494642704e-05  3.2403581699481865e-05  3.2303632988982748e-05  3.2110715969032185e-05  3.2652746742979279e-05  4.0339464556966091e-05  2.8021827328606988e-05  3.1400843640383705e-05  2.6317174001013975e-05  2.9257138831240755e-05  1.4171831818879807e-05  2.8121930904408812e-05  2.7398209869918269e-05  3.2121794354287378e-05  3.1757819711263264e-05  3.0744955038995196e-05  3.1148393293064037e-05  3.0897764738590974e-05  3.0748937254564322e-05  3.0281957101703691e-05  3.3378945475320734e-05  3.1723470002655984e-05  2.4953130278701255e-05  3.4008199598990185e-05  3.2682536300089952e-05  2.1710343551688627e-05  3.4166915760247443e-05  2.8720873913450635e-05  2.7347307360614517e-05  3.3233296625352561e-05  2.5665118937137546e-05  4.5650396356180690e-05  4.0864396655003697e-05  4.3282150856977385e-05  1.8980738507581590e-05  4.0231355693869786e-05  4.0801163851818687e-05  1.2886469107543502e-05  3.7023661613401016e-05  1.8334624122670342e-05  1.1993448849172558e-05  1.0567862689641614e-05  1.2687660067190488e-05  2.9154153053815755e-05  3.1970166949765340e-05  3.1641208967648230e-05  8.4968605460172182e-06  3.2511727424549504e-05  3.1423959853933857e-05  2.3174223786480621e-05  8.3154946132161485e-06  2.8801593418843064e-05  2.9567832096801391e-05  2.9854289179006515e-05  2.2543300821792600e-05  2.0905968530629159e-05  1.4175729160059386e-05  3.2018692954822481e-05  2.8530369529353084e-05  2.2028947807866744e-05  1.8560710626412927e-05  4.6269817227348144e-05  1.5403565488462193e-05  1.2447740683996131e-05  2.8142183909505079e-05  8.4486356436248254e-06  2.7481262984864147e-05  3.1097227820397256e-05  2.9822952279478369e-05  1.1508048973316580e-05  3.1211682060930355e-05  3.1403505972292741e-05  2.8642245651993770e-05  3.9258888199016596e-05  2.0509461393907564e-05  1.1223885584579416e-05  3.5296706504399182e-05  1.8576213376285817e-05  1.3629116521075608e-05  2.9602112520580214e-05  1.3579602705895249e-05  1.7190496667299559e-05  2.9800827408928630e-05  3.0784356143081147e-05  9.9529309681844030e-06  2.4235003569518254e-05  1.7135610032947660e-05  1.5753803803582755e-05  1.2825005220071488e-05  1.7732904920858715e-05  2.4927151755536570e-05  2.5825883277775859e-05  1.5022345942294782e-05  3.9228443981353023e-05  3.8018840764024842e-05  1.1440015948424802e-05  1.5198375686275255e-05  3.2849471478415015e-05  3.4727007685748354e-05  2.8238024079944462e-05  3.2336997964581941e-05  1.1206495597547209e-05  1.1013413951479841e-05  3.3639959074711922e-05  3.1250773402812158e-05  2.4815996075540702e-05  3.1488052734235063e-05  3.1215881026444913e-05  3.0843475084300888e-05  2.8176367729047102e-05  3.1276746679815353e-05  3.0555247229473738e-05  3.2115374046625819e-05  2.8478470061474920e-05  2.3109981113279251e-05  2.9049350022381202e-05  4.2266530498892277e-05  2.7296518327199569e-05  2.7271481539885180e-05  2.9671877509686582e-05  1.7387181837294348e-05  2.8421603692428706e-05  2.5206173749303470e-05  3.1046356914180232e-05  2.8344082083774475e-05  3.0015934995063296e-05  2.8590965862729310e-05  2.3665948695990254e-05  3.0402729903846780e-05  4.2230603416340658e-05  3.0471499742948006e-05  1.8204310954871489e-05  1.2153035270802663e-05  2.4105243495805093e-05  2.0923854712140351e-05  2.0488599767438809e-05  2.3857481177375328e-05  3.4829165415090914e-05  3.0591822763360777e-05  2.6698408587649775e-05  3.8828393671286177e-05  3.0972037505263863e-05  3.2346443223205484e-05  4.3366729370178923e-05  3.6298986124032330e-05  4.4390822276367446e-05  2.7917298976578077e-05  1.2938058137945300e-05  4.5171112155095498e-05  7.2313830464871029e-06  1.5730028341757689e-05  4.1130935139025983e-05  4.9304249645556466e-05  3.7015190629026938e-05  2.1867928182349657e-05  2.3901453134581209e-05  5.5130002157511844e-06  3.7586540384073564e-05  7.1423130529971896e-06  3.8130960759292045e-05  7.0952442194740291e-06  2.1900229859617570e-05  7.8063219962873566e-06  2.8160333415210184e-06  1.0613600127172493e-05  6.1531670441921900e-05  8.7138220370939289e-06  9.1562405449010840e-06  6.8637656232661841e-06  5.5625062668417043e-05  2.4608189881176037e-07  3.8451843952652419e-06  3.5336502311170714e-05  7.0757169272139190e-06  4.9614086421424915e-06  1.4439717300858739e-05  3.4509470781986499e-05  1.1155868793308160e-06  6.3058353043726013e-05  3.1996736959677449e-06  9.0665596084560889e-06  2.3046282436666221e-06  1.9044423678039655e-05  1.5389042852426998e-05  3.3338838361096485e-05  1.9455299122830817e-06  1.0626147374108386e-05  1.0550896015922247e-05  1.0181398970181056e-06  5.7674790470404824e-06  4.7080132171067681e-06  1.3714144942660046e-05  6.1677449350653055e-07  3.6632053810631512e-06  1.2441089723612510e-05  5.5265501995744908e-06  4.1468602987804094e-06  3.3346719581014162e-05  3.1561255302975624e-05  3.2114779686098763e-05  3.0919199342303989e-05  2.8083301701736485e-05  2.7295343419167993e-05  3.0143067734294433e-05  2.6102887418330204e-05  2.9253274479464005e-05  2.4234965681917645e-05  2.7951286697676102e-05  2.3865981416430318e-05  3.2940250917923706e-05  3.1464291408232061e-05  2.6466050672598632e-05  3.0145603081607857e-05  2.4519602227269874e-05  2.8256906543773238e-05  3.4200377629002820e-05  3.1104695705215793e-05  2.5543596075186916e-05  2.7788896487846495e-05  3.2684796053518942e-05  2.8901170847911698e-05  3.4482812839938234e-05  2.8936383845837689e-05  3.3128575187474722e-05  2.7269540305183921e-05  3.0560128372133303e-05  2.3703941899543024e-05  3.8426265466030405e-05  2.4548380304756409e-05  2.6943989719785927e-05  3.2925173006656128e-05  2.8483719719333432e-05  2.2566915234534743e-05  2.3420969385762857e-05  1.7901690148717303e-05  1.8190247852896708e-05  2.2912584401332817e-05  1.7313509650675888e-05  2.3214315120295856e-05  1.3588040763386548e-05  3.4426901166195688e-05  3.8308954622803481e-05  2.1573171879783066e-05  1.6022450907091847e-05  1.2379244209092028e-05  1.0951771745042277e-05  8.2307767029517284e-06  6.7764109042397999e-06  8.4711991917241103e-06  5.1006730174030250e-06  3.8694760022576852e-06  2.9548574311302755e-06  4.0330649631706852e-06  2.6215281118793056e-06  1.7265744404014929e-06  1.9744223374304792e-06  3.3563454615797822e-06  3.0737801610093407e-06  1.7062509277841649e-06  3.1323780124330881e-06  5.3700622632486174e-06  5.2836136107920543e-06  8.1533489050613364e-06  7.6485692952527343e-06  1.1475808553513259e-05  1.0060210359856828e-05  1.4800584512736764e-05  5.0305537788616337e-06  1.2006845564021198e-05  1.7030513512325491e-05  2.0778118856358197e-05  2.2990843266648910e-05  1.2226022150741978e-05  2.8666895922768519e-05  3.0118076829187122e-05  1.7869634704774151e-06  2.3489697849837180e-05  2.9987101644805910e-05  3.8145391625386032e-05  3.6579793231560287e-05  4.5869655462978914e-05  4.2605988905037071e-05  5.1057498313946431e-05  4.8309580436118590e-05  3.7685065551614554e-05  4.1579611536124538e-05  5.2115718108112157e-05  4.4197562149197719e-05  5.1921180095561626e-05  4.4346799611894647e-05  5.1280171848897014e-05  4.2188264935860058e-05  4.7113756142923958e-05  3.8873593971685468e-05  4.0750115557394573e-05  3.4334113468670332e-05  3.4974273923470130e-05  2.9106998459438564e-05  2.8586197186446422e-05  2.3628343331992629e-05  2.2270463207605070e-05  1.8354822491540080e-05  1.6293151690403129e-05  2.7745956732128504e-05  1.9379075746650799e-05  1.3944922357133684e-05  1.8653040286200509e-05  1.4187530528206413e-05  1.5894654196370358e-05  1.0666087183780061e-05  9.0488963007083326e-06  3.4793206056066304e-05  1.1659193920199776e-05  7.4953188568267260e-06  8.2491693888045441e-06  5.3592515314558529e-06  4.9627674591052548e-06  3.7311214462229071e-06  4.0985415757313303e-06  3.2295189229538158e-06  4.5065461281342696e-06  7.5580120076586625e-06  5.4063268797395536e-05  7.9730715213774754e-06  9.0253631577724162e-07  2.7129227873524213e-05  3.8583577927464465e-06  5.8580221083201147e-06  3.3989154455798828e-06  4.5441851887368252e-05  2.2098474128780983e-05  3.5531448885900512e-05  1.3795781243483848e-05  8.1735359919822850e-06  5.8400541047814810e-05  2.4490649477956233e-05  6.9488558284812730e-06  9.5492453639998033e-06  7.7683130109272506e-06  1.1924913972862953e-05  9.8003907412249148e-06  1.4439588549642785e-05  1.7068091007889975e-05  1.9685535353941061e-05  1.6262055362484184e-05  2.1301465003449718e-05  1.7183960300453863e-05  2.1798469775253925e-05  2.6450671842529308e-05  2.6083358310124996e-05  3.0867824246049548e-05  2.9581768854325946e-05  2.4608269103575021e-05  2.7269093132507720e-05  2.2179211777813411e-05  3.2063221656384797e-05  2.8767812051916938e-05  3.3271590660413389e-05  2.8931080334844017e-05  3.3126196051304776e-05  2.8067217010879892e-05  3.1826980732128521e-05  2.4722698972305225e-05  1.9552344792480230e-05  1.7283900306272679e-05  3.7413499436537770e-05  2.2566026936001502e-05  3.1047708843692181e-05  3.5420646675852241e-05  2.6279668408770783e-05  3.0421744529746956e-05  2.2185587292921016e-05  3.5110219036121788e-05  3.2692813656101925e-05  2.8096542517268201e-05  3.6297284908419910e-05  1.8995280030987988e-05  1.4180009208384153e-05  1.2360370382816335e-05  1.4904135018688656e-05  1.7172680725786033e-05  1.2923869802495484e-05  9.1947727899538691e-06  1.0272644325458621e-05  1.0430982381105523e-05  2.4044435490791160e-05  1.7410517608141628e-05  8.3603332736771034e-07  2.6416537009561035e-06  2.9543484980695392e-05  2.5522003523499428e-05  3.9552792283461619e-05  4.2438163213505627e-05  1.2030490343455620e-05  2.5261153103423603e-05  3.0479011695013035e-05  3.1749892103290393e-05  1.1332422057974018e-05  3.0292268051465770e-05  2.6196093927185326e-05  9.3201673122107682e-06  5.4276579230880098e-06  1.1314606835836473e-05  3.1099155866403851e-05  1.9802581570974485e-05  2.4766227138473008e-05  1.0255260802839615e-05  3.5734235060128121e-05  5.1354255771615106e-05  4.9199876354352592e-05  5.6588500184945187e-05  3.5876277890717145e-05  9.6661647576267263e-06  4.2662636623833158e-05  6.8079029185530433e-06  4.3394210698864644e-05  1.6838141661256954e-05  1.7855104720864983e-05  2.0859258971422616e-05  1.3713997553238354e-05  1.0232257103429893e-05  8.1838540199481804e-06  3.5274615814647141e-05  3.9158435184933954e-05  3.8649847319745409e-05  1.9529086631462372e-05  1.5593109077181547e-05  1.7899550219311633e-05  8.2692430828640081e-06  4.1827844245672799e-05  4.0937764234257920e-05  9.3888730786871114e-06  7.4427330608896251e-06  4.1215219532561825e-05  3.0788262649881652e-05  3.3898988143667138e-05  2.7083440771881794e-05  7.0992791784037353e-06  3.4181756220709652e-05  7.5575104403544619e-06  2.1867442589933011e-05  8.2111838989884545e-06  6.0365998352937962e-06  3.2447609032724924e-05  2.9634070422477848e-05  4.4558554954734147e-05  2.1256008661926747e-05  1.7816519780869943e-05  2.3781293593064036e-05  3.0338854227223648e-05  3.5059906337546495e-05  4.2386355822951612e-05  4.6141586336818932e-05  5.2198544172748038e-05  3.8777273081527936e-05  2.2741567557541659e-05  1.9024896709219694e-05  6.8335852434468904e-06  5.8500371191836973e-06  5.9608609286460283e-06  7.3901996926388434e-06  6.8556434460529373e-06  7.2429590269428012e-06  2.2907996303688518e-06  4.1417775059560470e-05  3.4576708515007564e-05  5