<?xml version="1.0"?>
<VTKFile type="UnstructuredGrid"  version="0.1"  >
<UnstructuredGrid>
<Piece  NumberOfPoints="1078" NumberOfCells="2058">
<Points>
<DataArray  type="Float64"  NumberOfComponents="3"  format="ascii">0 0 0  0 1 0  1 1 0  1 0 0  1.1 -0.1 0  -0.1 -0.1 0  1.1 1.1 0  -0.1 1.1 0  0.5179102851745738 0.5754507472541734 0  0 0.9499999999997918 0  0 0.8999999999995836 0  0 0.8499999999996529 0  0 0.7999999999999998 0  0 0.7500000000003466 0  0 0.7000000000006934 0  0 0.6500000000010401 0  0 0.6000000000013869 0  0 0.5500000000017335 0  0 0.5000000000020587 0  0 0.4500000000018723 0  0 0.4000000000016644 0  0 0.3500000000014564 0  0 0.3000000000012483 0  0 0.2500000000010403 0  0 0.2000000000008322 0  0 0.1500000000006241 0  0 0.100000000000416 0  0 0.05000000000020799 0  0.04999999999989965 0 0  0.09999999999981467 0 0  0.1499999999997036 0 0  0.1999999999995579 0 0  0.2499999999994121 0 0  0.2999999999992664 0 0  0.3499999999991206 0 0  0.3999999999989749 0 0  0.4499999999988292 0 0  0.4999999999986943 0 0  0.5499999999988151 0 0  0.5999999999989468 0 0  0.6499999999990784 0 0  0.69999999999921 0 0  0.7499999999993417 0 0  0.7999999999994734 0 0  0.8499999999996051 0 0  0.8999999999997368 0 0  0.9499999999998684 0 0  1 0.04999999999989965 0  1 0.09999999999981467 0  1 0.1499999999997036 0  1 0.1999999999995579 0  1 0.2499999999994121 0  1 0.2999999999992664 0  1 0.3499999999991206 0  1 0.3999999999989749 0  1 0.4499999999988292 0  1 0.4999999999986943 0  1 0.5499999999988151 0  1 0.5999999999989468 0  1 0.6499999999990784 0  1 0.69999999999921 0  1 0.7499999999993417 0  1 0.7999999999994734 0  1 0.8499999999996051 0  1 0.8999999999997368 0  1 0.9499999999998684 0  0.9499999999997918 1 0  0.8999999999995836 1 0  0.8499999999996529 1 0  0.7999999999999998 1 0  0.7500000000003466 1 0  0.7000000000006934 1 0  0.6500000000010401 1 0  0.6000000000013869 1 0  0.5500000000017335 1 0  0.5000000000020587 1 0  0.4500000000018723 1 0  0.4000000000016644 1 0  0.3500000000014564 1 0  0.3000000000012483 1 0  0.2500000000010403 1 0  0.2000000000008322 1 0  0.1500000000006241 1 0  0.100000000000416 1 0  0.05000000000020799 1 0  -0.1 1.05000000000004 0  -0.1 1.000000000000079 0  -0.1 0.9500000000001624 0  -0.1 0.9000000000003032 0  -0.1 0.850000000000444 0  -0.1 0.8000000000005848 0  -0.1 0.7500000000007256 0  -0.1 0.7000000000008665 0  -0.1 0.6500000000010508 0  -0.1 0.6000000000012352 0  -0.1 0.5500000000014196 0  -0.1 0.500000000001539 0  -0.1 0.4500000000014195 0  -0.1 0.4000000000013 0  -0.1 0.3500000000011588 0  -0.1 0.3000000000010178 0  -0.1 0.2500000000008986 0  -0.1 0.2000000000007579 0  -0.1 0.1500000000006174 0  -0.1 0.1000000000005272 0  -0.1 0.05000000000040083 0  -0.1 2.671196597248127e-13 0  -0.1 -0.0499999999998666 0  -0.0500000000000906 -0.1 0  -1.730560139634463e-13 -0.1 0  0.04999999999975802 -0.1 0  0.09999999999961506 -0.1 0  0.1499999999994613 -0.1 0  0.199999999999302 -0.1 0  0.2499999999991446 -0.1 0  0.2999999999990088 -0.1 0  0.3499999999988296 -0.1 0  0.3999999999986936 -0.1 0  0.4499999999985143 -0.1 0  0.4999999999984002 -0.1 0  0.5499999999985247 -0.1 0  0.5999999999986493 -0.1 0  0.6499999999987955 -0.1 0  0.6999999999989417 -0.1 0  0.7499999999990659 -0.1 0  0.7999999999992116 -0.1 0  0.8499999999993573 -0.1 0  0.8999999999994526 -0.1 0  0.949999999999584 -0.1 0  0.9999999999997226 -0.1 0  1.049999999999861 -0.1 0  1.1 -0.0500000000000906 0  1.1 -1.730560139634463e-13 0  1.1 0.04999999999975802 0  1.1 0.09999999999961506 0  1.1 0.1499999999994613 0  1.1 0.199999999999302 0  1.1 0.2499999999991446 0  1.1 0.2999999999990088 0  1.1 0.3499999999988296 0  1.1 0.3999999999986936 0  1.1 0.4499999999985143 0  1.1 0.4999999999984002 0  1.1 0.5499999999985247 0  1.1 0.5999999999986493 0  1.1 0.6499999999987955 0  1.1 0.6999999999989417 0  1.1 0.7499999999990659 0  1.1 0.7999999999992116 0  1.1 0.8499999999993573 0  1.1 0.8999999999994526 0  1.1 0.949999999999584 0  1.1 0.9999999999997226 0  1.1 1.049999999999861 0  1.05000000000004 1.1 0  1.000000000000079 1.1 0  0.9500000000001624 1.1 0  0.9000000000003032 1.1 0  0.850000000000444 1.1 0  0.8000000000005848 1.1 0  0.7500000000007256 1.1 0  0.7000000000008665 1.1 0  0.6500000000010508 1.1 0  0.6000000000012352 1.1 0  0.5500000000014196 1.1 0  0.500000000001539 1.1 0  0.4500000000014195 1.1 0  0.4000000000013 1.1 0  0.3500000000011588 1.1 0  0.3000000000010178 1.1 0  0.2500000000008986 1.1 0  0.2000000000007579 1.1 0  0.1500000000006174 1.1 0  0.1000000000005272 1.1 0  0.05000000000040083 1.1 0  2.671196597248127e-13 1.1 0  -0.0499999999998666 1.1 0  0.5517089995415477 0.5694927199320123 0  0.5812048144697766 0.5487827995032879 0  0.5921615778939326 0.5145521329491338 0  0.5941354287416012 0.4803260906674516 0  0.5931009541159841 0.4465354230488159 0  0.5891771125264417 0.4131733916018542 0  0.5820428468901468 0.38027769874416 0  0.5707777105564107 0.3483498783325851 0  0.552870910702025 0.318983304108486 0  0.5245342215685159 0.2990083497536354 0  0.4914722659780849 0.2987323762113527 0  0.4610116650885525 0.307778884623443 0  0.4324894307973137 0.3197163691111427 0  0.4049368157917957 0.3331296129726899 0  0.3781388294804562 0.3475430146922316 0  0.3519937915415725 0.3627117202230969 0  0.3264353428073681 0.3785039861252378 0  0.3015383887923204 0.394855978652885 0  0.277291202046663 0.4117944514196663 0  0.2538926683694147 0.429634542063493 0  0.2319104685194382 0.4491515329691593 0  0.2134231928474661 0.4725317863368287 0  0.2178943747614885 0.5007557228396581 0  0.243297821479934 0.5184653778885273 0  0.2710899742257621 0.5309894156114915 0  0.299836398393576 0.541201810587718 0  0.3292976897388444 0.5499449456459684 0  0.3593612788286323 0.5575271243446422 0  0.3899574016834041 0.5639399565192432 0  0.4211098580872132 0.5691729203139013 0  0.4527602933891153 0.5731879296121504 0  0.4849531925876109 0.5755584254319798 0  0.5623452823567213 0.4333247345874945 0  0.4057139157882492 0.3682073331945169 0  0.4453908662832725 0.5396353339033818 0  0.3288398555707957 0.4115327238225471 0  0.3781271115946874 0.5317228809111461 0  0.4614673023962014 0.3434551146498644 0  0.5048421270202671 0.5441083249583463 0  0.3197110076740631 0.5172695849222905 0  0.5483705675201109 0.3710855203339286 0  0.2817608599794094 0.4453345813242836 0  0.562465459248407 0.4979979001689992 0  0.5167816453974643 0.3258339316175552 0  0.2648120917720498 0.4970335174655735 0  0.2387995391543644 0.4833001858243396 0  0.5578257223880605 0.5320860326876254 0  0.5275389352317754 0.5160845333329834 0  0.5362093969957196 0.4794165315415614 0  0.5050697259230547 0.4918303069083996 0  0.5102996665730033 0.4584568852959993 0  0.4798080648777236 0.4698465727878463 0  0.485052323611752 0.4356148600425295 0  0.4545764986283182 0.4471369237035421 0  0.4590863224774161 0.4130371078524321 0  0.4291382522956814 0.4241928397936349 0  0.4244570534960579 0.4583554227508129 0  0.3995213360894603 0.435023747090835 0  0.489434492952547 0.4015720188813187 0  0.3950276488561781 0.468752221680848 0  0.371590939293923 0.4457493736119214 0  0.367326707940015 0.4777674943037179 0  0.4187019156216051 0.4927004194293966 0  0.3765964648877227 0.4129233324532977 0  0.3442201047936052 0.4558968358296822 0  0.4710494794763561 0.5069382314715033 0  0.4618978983132791 0.3790108611672072 0  0.4894988646923899 0.3674347915880133 0  0.5141351836487817 0.425903705603968 0  0.4491822114948515 0.4815077886583402 0  0.5229301826678601 0.3928595834769311 0  0.4325029595781579 0.3905355108460496 0  0.4038766165746608 0.401786104668685 0  0.4124122331147292 0.5298019334268695 0  0.3486497548645967 0.5253364960199833 0  0.475922627390671 0.5430711008786947 0  0.3043208754477054 0.4271094964250248 0  0.3126804145524996 0.4602404362549589 0  0.4332781709735626 0.3557103750496472 0  0.3387040543438277 0.4905460939851928 0  0.2918501886869258 0.5091082227401266 0  0.2595975540458226 0.4636104323766389 0  0.3781222750521815 0.3809096421037065 0  0.5576635167102557 0.401745557500849 0  0.5645448500843949 0.4647790220588154 0  0.3910982513094003 0.5008358957833733 0  0.2851837523002785 0.4775750165693821 0  0.5417014983019128 0.3452769523448976 0  0.3526409863281173 0.3950666585681676 0  0.4899962025053122 0.3342457251025972 0  0.4409142043330959 0.5100234533930268 0  0.5188751621993573 0.3589485249727375 0  0.5381774710943976 0.4479400133267466 0  0.3097250564408202 0.4909807364567046 0  0.3509939335367365 0.4255747161254186 0  0.4960071065696224 0.5192872881036055 0  0.5312912369101145 0.5478511597263129 0  0.3648604421923841 0.5052756073618654 0  0.5391358653348679 0.4203837338912192 0  0.3259527033114004 0.4365539405379441 0  0.591352807950365 0.3605730684020929 0  0.6105596878542677 0.4639668213883144 0  0.3414553638627158 0.5709211113445958 0  0.5326358859919833 0.5888451400832501 0  0.9814645615336197 0.7023021051981727 0  0.6448287392350124 0.9843674875417222 0  0.4338187908976544 0.589154487754281 0  0.9898163314623813 0.539266690490713 0  0.9802682997508254 0.2757408275085203 0  0.2863818139334205 0.9737470872934 0  0.3291262930749113 0.3528332247692754 0  0.4089105851498344 0.3078786727309519 0  0.4422635434075576 0.9819832972022189 0  0.2539556298007864 0.5411296274672008 0  0.05847836969159178 0.752046788600687 0  0.706046014255739 0.04539901483563558 0  0.2533205993688701 0.4031562455158851 0  0.6026510491128406 0.5330168147581336 0  0.800946414183071 0.9835283711574182 0  0.2388204653084092 0.0473704767672715 0  0.05734298507376937 0.2364706715355591 0  0.2107934861727856 0.4439977988552775 0  0.5566345111676452 0.04926525429338346 0  0.3990012013234783 0.04618025249176205 0  0.8491513055887244 0.04336867748003636 0  0.198245648774256 0.4881860538474863 0  0.4710276468915027 0.2876499842290374 0  0.0545060754515774 0.5971981812166828 0  0.9862088443653385 0.849248274789898 0  0.05294179793924435 0.3357208652647374 0  0.5936332284980973 0.561058921126227 0  0.6159922659460596 0.5482706423729119 0  0.608524796689
[...]
<PointData  Scalars="v"> 
<DataArray  type="Float64"  Name="v"  format="ascii">0.0000000000000000e+00  0.0000000000000000e+00  0.0000000000000000e+00  0.0000000000000000e+00  0.0000000000000000e+00  0.0000000000000000e+00  0.0000000000000000e+00  0.0000000000000000e+00  6.4028917579863794e-03  0.0000000000000000e+00  0.0000000000000000e+00  0.0000000000000000e+00  0.0000000000000000e+00  0.0000000000000000e+00  0.0000000000000000e+00  0.0000000000000000e+00  0.0000000000000000e+00  0.0000000000000000e+00  0.0000000000000000e+00  0.0000000000000000e+00  0.0000000000000000e+00  0.0000000000000000e+00  0.0000000000000000e+00  0.0000000000000000e+00  0.0000000000000000e+00  0.0000000000000000e+00  0.0000000000000000e+00  0.0000000000000000e+00  0.0000000000000000e+00  0.0000000000000000e+00  0.0000000000000000e+00  0.0000000000000000e+00  0.0000000000000000e+00  0.0000000000000000e+00  0.0000000000000000e+00  0.0000000000000000e+00  0.0000000000000000e+00  0.0000000000000000e+00  0.0000000000000000e+00  0.0000000000000000e+00  0.0000000000000000e+00  0.0000000000000000e+00  0.0000000000000000e+00  0.0000000000000000e+00  0.0000000000000000e+00  0.0000000000000000e+00  0.0000000000000000e+00  0.0000000000000000e+00  0.0000000000000000e+00  0.0000000000000000e+00  0.0000000000000000e+00  0.0000000000000000e+00  0.0000000000000000e+00  0.0000000000000000e+00  0.0000000000000000e+00  0.0000000000000000e+00  0.0000000000000000e+00  0.0000000000000000e+00  0.0000000000000000e+00  0.0000000000000000e+00  0.0000000000000000e+00  0.0000000000000000e+00  0.0000000000000000e+00  0.0000000000000000e+00  0.0000000000000000e+00  0.0000000000000000e+00  0.0000000000000000e+00  0.0000000000000000e+00  0.0000000000000000e+00  0.0000000000000000e+00  0.0000000000000000e+00  0.0000000000000000e+00  0.0000000000000000e+00  0.0000000000000000e+00  0.0000000000000000e+00  0.0000000000000000e+00  0.0000000000000000e+00  0.0000000000000000e+00  0.0000000000000000e+00  0.0000000000000000e+00  0.0000000000000000e+00  0.0000000000000000e+00  0.0000000000000000e+00  0.0000000000000000e+00  0.0000000000000000e+00  0.0000000000000000e+00  0.0000000000000000e+00  0.0000000000000000e+00  0.0000000000000000e+00  0.0000000000000000e+00  0.0000000000000000e+00  0.0000000000000000e+00  0.0000000000000000e+00  0.0000000000000000e+00  0.0000000000000000e+00  0.0000000000000000e+00  0.0000000000000000e+00  0.0000000000000000e+00  0.0000000000000000e+00  0.0000000000000000e+00  0.0000000000000000e+00  0.0000000000000000e+00  0.0000000000000000e+00  0.0000000000000000e+00  0.0000000000000000e+00  0.0000000000000000e+00  0.0000000000000000e+00  0.0000000000000000e+00  0.0000000000000000e+00  0.0000000000000000e+00  0.0000000000000000e+00  0.0000000000000000e+00  0.0000000000000000e+00  0.0000000000000000e+00  0.0000000000000000e+00  0.0000000000000000e+00  0.0000000000000000e+00  0.0000000000000000e+00  0.0000000000000000e+00  0.0000000000000000e+00  0.0000000000000000e+00  0.0000000000000000e+00  0.0000000000000000e+00  0.0000000000000000e+00  0.0000000000000000e+00  0.0000000000000000e+00  0.0000000000000000e+00  0.0000000000000000e+00  0.0000000000000000e+00  0.0000000000000000e+00  0.0000000000000000e+00  0.0000000000000000e+00  0.0000000000000000e+00  0.0000000000000000e+00  0.0000000000000000e+00  0.0000000000000000e+00  0.0000000000000000e+00  0.0000000000000000e+00  0.0000000000000000e+00  0.0000000000000000e+00  0.0000000000000000e+00  0.0000000000000000e+00  0.0000000000000000e+00  0.0000000000000000e+00  0.0000000000000000e+00  0.0000000000000000e+00  0.0000000000000000e+00  0.0000000000000000e+00  0.0000000000000000e+00  0.0000000000000000e+00  0.0000000000000000e+00  0.0000000000000000e+00  0.0000000000000000e+00  0.0000000000000000e+00  0.0000000000000000e+00  0.0000000000000000e+00  0.0000000000000000e+00  0.0000000000000000e+00  0.0000000000000000e+00  0.0000000000000000e+00  0.0000000000000000e+00  0.0000000000000000e+00  0.0000000000000000e+00  0.0000000000000000e+00  0.0000000000000000e+00  0.0000000000000000e+00  0.0000000000000000e+00  0.0000000000000000e+00  0.0000000000000000e+00  0.0000000000000000e+00  0.0000000000000000e+00  0.0000000000000000e+00  0.0000000000000000e+00  0.0000000000000000e+00  0.0000000000000000e+00  0.0000000000000000e+00  0.0000000000000000e+00  6.4986668459934144e-03  6.6127497156856343e-03  6.3631908478561398e-03  6.2585901658890851e-03  6.1434219685080147e-03  5.9703111211323262e-03  5.7500770886859971e-03  5.5214215151973226e-03  5.2817721431771538e-03  5.1544690471007097e-03  4.9521077560982004e-03  4.9289023673155727e-03  4.9396792568556034e-03  4.9124035766591320e-03  4.8612453924337046e-03  4.7730826457015466e-03  4.6415347298862123e-03  4.4770430773470862e-03  4.2706835766062748e-03  4.0370409145131028e-03  3.8184207677769066e-03  3.7796944636887177e-03  3.8947891792171512e-03  4.1145130915134871e-03  4.4936505560208102e-03  4.8759952001544296e-03  5.2186849717059834e-03  5.5323028091786904e-03  5.7772430047049348e-03  5.9933247928227480e-03  6.1853243784092682e-03  6.3428727334323819e-03  5.1383081082083948e-03  4.3645212912629709e-03  5.1511870304976328e-03  4.0770711729958423e-03  4.7924245350939023e-03  4.4044516529927634e-03  5.3102656322050754e-03  4.2752962144948026e-03  4.7695424100558381e-03  3.7256555529932163e-03  5.2990947629554417e-03  4.4366934945698185e-03  3.6438171594629512e-03  3.4194738064779301e-03  5.3949741985874862e-03  5.2614760275940219e-03  5.2441848694906954e-03  5.2949086756772755e-03  5.2213019263578414e-03  5.2119691289453669e-03  5.0886470591552215e-03  5.0302271648538380e-03  4.8956298919459861e-03  4.8165009506104979e-03  4.9401021956449204e-03  4.6958901652958181e-03  4.9273627216403831e-03  4.7970528501261383e-03  4.5441471761269621e-03  4.6050964021752856e-03  4.9688955819628504e-03  4.4042860277215545e-03  4.3500410832977123e-03  5.2136055312918730e-03  4.6652700858839840e-03  4.6377650401380937e-03  5.0697613761099174e-03  5.1195645258581288e-03  4.8598121856962299e-03  4.6143722306460772e-03  4.5249001273590861e-03  4.9182942675957712e-03  4.5464209805888669e-03  5.2610221786859876e-03  3.9289796448512947e-03  4.0398480781342486e-03  4.3994285638169570e-03  4.3610145017681538e-03  3.9841533950794056e-03  3.5163709979361790e-03  4.3022599917263730e-03  4.9829805769732918e-03  5.2558905474609039e-03  4.7873278174653646e-03  3.7652283892556922e-03  4.6775813460430875e-03  4.2071842723035071e-03  4.3791126438985474e-03  5.0862454114152739e-03  4.5951156179548864e-03  5.1457435146806544e-03  4.0728243788621344e-03  4.2688557672023843e-03  5.2651706431280946e-03  5.4556761218218525e-03  4.5990289297264814e-03  5.0212039814513361e-03  4.1062214752460692e-03  6.2826333882846025e-03  6.9944505426081877e-03  6.1038632735470463e-03  7.2197904695236893e-03  5.5259222175345986e-04  5.2365720643213209e-04  6.9572726316502222e-03  3.9817832066141849e-04  5.1855240444291517e-04  6.6793141222405684e-04  5.2145062569478933e-03  5.4673599251086587e-03  6.3573234005287948e-04  4.8478049271411467e-03  1.0845439441307875e-03  1.0326294812081783e-03  4.5864522997976194e-03  7.1646934972994895e-03  3.6259487565120182e-04  8.0717651797259098e-04  9.1934725430956748e-04  4.0600961657122105e-03  1.3048400251555485e-03  1.1420537811704518e-03  5.8604151319942288e-04  3.9496715201028394e-03  5.3935921012983274e-03  1.3314697773744019e-03  2.4913545183784670e-04  1.1168012150251610e-03  7.2967209547888301e-03  7.4507773292437586e-03  7.4762600997408018e-03  7.4016846613260369e-03  7.3591105234059187e-03  7.1784244735454998e-03  7.0765155185974786e-03  6.8496282491453319e-03  6.7017575503759792e-03  6.9032120796650052e-03  6.9042401149018674e-03  6.4805029874134036e-03  6.6353568686725170e-03  6.3855131786544088e-03  6.1763225660162969e-03  6.2678936131187780e-03  5.7748124860894411e-03  5.6499623147024895e-03  5.8075284050957436e-03  6.2632438487478922e-03  5.7357391445952395e-03  6.1569433056783852e-03  5.5701884512954066e-03  5.9527379013652451e-03  5.3249052617369520e-03  5.6675387578199368e-03  5.2187362338211056e-03  5.0602067383851389e-03  5.0059348914213908e-03  5.2971185912157040e-03  5.1201266072129640e-03  4.5973256211210931e-03  4.4138105828142428e-03  4.6142231490727400e-03  4.8532725523580972e-03  3.9322674090126993e-03  3.7361283637307556e-03  4.1377296156019528e-03  5.4859191840177235e-03  4.9901103608454176e-03  4.3587895790348783e-03  4.4484359023489939e-03  3.8262994183126129e-03  3.4389103518126791e-03  3.7555769585920695e-03  5.0112375478415022e-03  4.4259937265656293e-03  4.0361459696260640e-03  6.2513877161740825e-03  4.9132983619110428e-03  4.2823993923541796e-03  4.2748272459699147e-03  3.0473182696163109e-03  5.9863081665513084e-04  2.7472549388727037e-03  5.8560650216759431e-04  3.1702455685670702e-04  3.4113183990605291e-04  4.3673150153499256e-04  5.4486545974277191e-03  4.1255582105780182e-03  3.8209383299994525e-03  3.9616464601057730e-03  3.5170575796573639e-03  3.4024197056335193e-03  3.6112798818835781e-03  7.4793014237835810e-03  3.3630254366412492e-03  3.8049278180274470e-03  3.8728313228718358e-03  5.9182792046372039e-04  3.6136059157582377e-03  3.3743617643087424e-03  4.6928862743299696e-03  4.1092067298073714e-03  3.6955639116662900e-03  2.3747041664736041e-03  3.1447862053946450e-03  6.6277556860975242e-03  3.0322324663553898e-03  3.0129342920616259e-03  4.5789694051638430e-03  4.0165063555168742e-03  3.2798298672400803e-03  3.4283235673579575e-03  4.1488254309027545e-03  3.5078648760162854e-03  4.2119825655987419e-03  3.5266858242724063e-03  4.2068454516287811e-03  3.4587144851700273e-03  4.1146412002598630e-03  3.3399973438748569e-03  3.9492933074493025e-03  4.7038393395637586e-03  4.4936075300842935e-03  3.7450310114104236e-03  4.2300898517922438e-03  4.9426466576632843e-03  4.6306197112424268e-03  3.9193954220032804e-03  4.2565218852259803e-03  3.5643697973909822e-03  3.8176063777520882e-03  4.4809328507663046e-03  3.1862907397515708e-03  3.9722416621732629e-03  5.6796764321561935e-03  4.5824779497345173e-03  5.1840653616108756e-03  4.0165679940801719e-03  4.5649006223981610e-03  3.9429910608689755e-03  4.4329124603993400e-03  3.4614883992572986e-03  3.2019675331279389e-03  5.1202353325276893e-03  3.7585579983464598e-03  4.2901612719697443e-03  3.4871961593776527e-03  3.0843449582540765e-03  2.7755868800190069e-03  2.3425146149803273e-04  2.0801103009158097e-03  1.7467560694605603e-03  4.8826673506975529e-03  5.5242049141803811e-03  5.5895419986858328e-03  5.3575950232600204e-03  5.8000814002874806e-03  1.9362808269096092e-03  2.7066387472583220e-03  3.2676160617536318e-03  2.7807671110421446e-03  3.1145668188529239e-03  7.3916669829710300e-03  2.6357098419203845e-03  3.1690747941253523e-03  3.3008575088375328e-03  2.4521900147558870e-03  3.8550365795089509e-03  2.9283464729802609e-03  3.4955181525901848e-03  3.8931633833960990e-03  3.3398224175579779e-03  3.0165989222007855e-03  2.6666984214389045e-03  2.5282949149019606e-03  3.3883417809912738e-03  5.4114601860422889e-04  2.5659953750723050e-03  3.1423116721598981e-03  2.5449978241884573e-03  3.0425755247790510e-03  4.2145722580586853e-03  5.4947040218131706e-03  2.5374117208464037e-03  2.4850018204790273e-03  2.6351814406051434e-03  2.4922575239980345e-03  1.4726985816662160e-03  1.6855139226355420e-03  1.2125244169254661e-03  6.9760756167281121e-03  1.9999274757953704e-03  2.1031586888936842e-03  3.2170447177311263e-03  5.2972387691743996e-03  5.5980000216198601e-03  5.8954405742785302e-03  6.1636544031250179e-03  6.4057589829201178e-03  6.6350542008783309e-03  6.3640778252053607e-03  6.8440632429994479e-03  6.5720773098889599e-03  6.9265079028963143e-03  6.6408182616127477e-03  6.2433360727950091e-03  6.3191769961647134e-03  3.1273305069581024e-03  3.5118459126484655e-03  2.6947516039576491e-03  2.4095517395092352e-04  2.9131806935315326e-04  5.7304421385968819e-03  5.4482319650072603e-03  4.2084938153843093e-03  3.8142238687645107e-03  3.1195250731074499e-03  3.4168752792805958e-03  4.0729996654934823e-03  3.6655540203549787e-03  4.3847155258196300e-03  3.8766319966979639e-03  4.4724365207854345e-03  3.9877344544458912e-03  3.3903228779409316e-03  3.4867020169642294e-03  4.0423585031130107e-03  3.5165511904521247e-03  4.0089713822301738e-03  3.4599248993472664e-03  3.8845718229990958e-03  3.3096265094746222e-03  2.8934184061544916e-03  3.6692479692876719e-03  3.0691819273030289e-03  2.8610630213288142e-03  3.3619730578780464e-03  2.7447355560048662e-03  2.4960724122072031e-03  4.6306029991885593e-03  4.2511987150974278e-03  2.9369905503070517e-03  6.0793050258427907e-03  2.1059583296037920e-03  1.8663273405246112e-03  1.9709071006140284e-03  1.9908336963252054e-03  2.9835597720568436e-03  3.6657225181322543e-03  2.3157737104397202e-03  3.6773020336268235e-03  3.1633566648278885e-03  2.1581120241599239e-03  5.8970492993121884e-03  4.9237429332802405e-03  4.9925140103591111e-03  6.8688895468411648e-03  7.0360146425795253e-03  2.0596068190173334e-03  1.3583205612154616e-03  5.9143457847058694e-03  1.7311807615479120e-04  2.9468463881147195e-03  2.4689813504409188e-03  2.1878009366103793e-03  1.7630023867671108e-03  3.5772716086780623e-03  5.3151985671033132e-03  2.7080230460882881e-03  2.1671059240857852e-03  2.3261960649729359e-03  1.5521292995575554e-03  1.5963349937137292e-03  1.1345435034062657e-03  1.0831052616822690e-03  1.4509093394214851e-03  1.1166410532793766e-03  1.2404405310513995e-03  1.8570343849253601e-03  1.7497114577872911e-03  2.3753507386211586e-03  1.5951578420988701e-03  2.1714462215301246e-03  1.4186192774687369e-03  1.9545014336969568e-03  4.5874874886767860e-03  4.6949672284360162e-03  4.2756369662258244e-03  5.0634085258472938e-03  5.1212137155128715e-03  5.5167936215313297e-03  5.5420253419159113e-03  5.9196567236579536e-03  5.9315332290131315e-03  6.3005276071474835e-03  6.2619509274107676e-03  6.6397266288324179e-03  6.5771304419624645e-03  6.9353825975951786e-03  6.8185698981367698e-03  7.1972549915794463e-03  6.9849415848963637e-03  7.2987855803368258e-03  7.0432476877991083e-03  7.3417969628187503e-03  6.5673542068430280e-03  7.4750783321567678e-03  7.5106767781493401e-03  7.3185714297575345e-03  7.4928154386739746e-03  3.1401405179007406e-03  2.1493842171748123e-03  3.9250634071416506e-03  1.8934330000373372e-03  6.8466139511555845e-03  5.4131328489586744e-03  2.5929787259521861e-03  2.6709051996374948e-03  1.5928842327482141e-03  3.5966122616017801e-03  5.5456443908942742e-03  1.7066817994242274e-03  1.8409463607258071e-03  5.0986905055248610e-03  5.3142551859949603e-03  3.2680199400198164e-03  4.2010789244859934e-03  5.7427693959673882e-03  8.9548553546667036e-04  2.3902712549418322e-03  1.3645110361478218e-03  7.6427546616190652e-04  7.3841685853983105e-03  8.5564303263743096e-04  5.8019905449388943e-03  1.6688994227834146e-03  1.8332558480344742e-03  2.4046997824979676e-03  1.8940859276315692e-03  1.3331139210782650e-03  7.0669574082857373e-03  2.1130666693211092e-03  6.5727627624779092e-03  6.1644686491689141e-03  7.2860994899313931e-03  5.0676066487875555e-03  1.6085468000775916e-03  6.7107346262683539e-04  7.3533030654069657e-03  1.2688318364678310e-03  1.9448506573259640e-03  1.2503221947814933e-03  7.2660935050671335e-03  7.1690206330846775e-03  7.3143825216505478e-03  5.2588711462253869e-03  4.9518504943368491e-03  5.3978677563231870e-03  1.4428754727013589e-03  1.8364990760860035e-03  1.0843483816622137e-03  1.3535785990473690e-03  5.0615413231621430e-03  1.2391392223424879e-03  1.7133010861762692e-03  1.0360928159651014e-03  1.4418956373229760e-03  2.0867731499440868e-03  1.7509369869491750e-03  1.1621939678483698e-03  1.3683451280656362e-03  1.9439423857372546e-03  8.6407094145681321e-04  1.4641568344288796e-03  2.0021419980109129e-03  1.4004664411019546e-03  1.9027574928218644e-03  2.5271965252842855e-03  7.1775796096073567e-03  4.3211428313655589e-03  4.3834408032881449e-03  4.6244415493606394e-03  4.0782646291843017e-03  4.9658687560682540e-03  4.5270336155923529e-03  4.9885805968724007e-03  4.8289567905821897e-03  4.5886301704086392e-03  4.9689038898556104e-03  5.2163178305012266e-03  6.0475661042965999e-03  2.2873352601206799e-03  1.8295407645985010e-03  2.2167482849512862e-03  1.9663492476293862e-03  1.3683097023757358e-03  5.1070086397308374e-03  6.5271832587636153e-03  4.9306584345758383e-04  1.4020194134928053e-03  4.0520142629432970e-03  1.0316165700560481e-03  1.6329651492106845e-03  1.3789876735717105e-03  7.5554739733316298e-04  1.1431570223429518e-03  1.7100433211699989e-03  1.3292547285743345e-03  8.6324012936171495e-04  4.2737597755277768e-04  1.9525231957692390e-03  5.6261963251565935e-03  6.0339402448707641e-03  5.9115497770580788e-03  4.9365009803743485e-03  1.2350749538152137e-03  4.8266951567781146e-03  3.3029706348793324e-03  3.4316716971746607e-03  5.4964674051832547e-03  5.2091839622273560e-03  5.5023195474529774e-03  4.8623200487293459e-03  5.4983532504048098e-03  5.4632948373713186e-03  6.0394075004048409e-03  6.0154015875324429e-03  5.9636039079614201e-03  5.3621421945139053e-03  5.8480444301392039e-03  6.5283094405653788e-03  5.2187428539395347e-03  7.3859164163083907e-03  6.4884817382298062e-03  6.9617561735402815e-03  4.1123162985070861e-04  1.1757612790292665e-03  6.4188874693245843e-03  4.0372624032004832e-03  4.6967265313391056e-03  6.2382118783091672e-04  2.3692214197759856e-03  6.3904442792950321e-04  6.8149849389810893e-04  2.5617016638953358e-03  2.4213999307325829e-03  1.1617738680038440e-03  1.0977726131387415e-03  1.6137750606686032e-03  4.5467069985995938e-03  5.4273040846600186e-03  5.3530392082926058e-03  5.3408576802804067e-03  5.3939287140654006e-03  6.2201146652614706e-03  6.9764075317349592e-04  1.0826470884130886e-03  1.4361371550819146e-03  4.6841798830480142e-03  1.1985064465564340e-03  2.0614037591656946e-03  1.9329021063480508e-03  7.7552736304444187e-04  6.6619849019577708e-03  1.8831483803447675e-03  4.9267257178669619e-03  6.7962894107494792e-03  4.6585150994152714e-04  5.9551174167814854e-04  5.7639032656047742e-04  2.4845263026266012e-03  6.2702097336678224e-03  4.5324095654418651e-04  4.3811759504060544e-03  2.3526319781852580e-03  1.2807625312746210e-03  3.7144736813262955e-03  2.6825372064279802e-04  3.1739451495651225e-03  1.7747507267920741e-03  4.2097722198476158e-04  3.1425896690559458e-04  8.5740569071669618e-04  5.8986765285510396e-04  3.7313973804445181e-04  5.2530275187501075e-03  4.2411906258675606e-03  2.9654084048717053e-03  7.1012292282853547e-03  4.0273531770733872e-03  2.1511859620082694e-04  5.9083536127369190e-04  1.1787541315214931e-03  5.0836838324717038e-03  3.1674803161366874e-03  5.8493882321147082e-03  3.0457736255687335e-04  9.0965983592892618e-04  8.4587262236206294e-04  1.2729087607398404e-03  2.0900445041707101e-03  2.6992886293351879e-03  4.9591840639277829e-04  4.8083028253173652e-03  2.5807208340913089e-03  7.1639426576820767e-03  6.7601721251090109e-03  4.8291441387506998e-03  2.0595708964053264e-03  3.6875160886556185e-03  1.3663164315949412e-03  6.4461749111169621e-03  2.9593068461321024e-03  3.0504680813484464e-03  6.5076784658270898e-03  1.4065157163811810e-03  1.8592290259664720e-03  2.7776830068681861e-03  2.6802018389034394e-03  4.6336930964501555e-03  3.3987178057211850e-03  5.5552225122437980e-03  3.2520851061018821e-03  4.9159420816145142e-03  1.7604545054371295e-03  1.8760071406543513e-03  6.2037691751513722e-03  5.1182795839770732e-03  4.1628666312056948e-03  7.5303882483383523e-03  7.5289414215222684e-03  7.4292069046592224e-03  6.6514361181593449e-04  7.3255170431402096e-04  1.3791238323364681e-03  3.8923438966498433e-03  4.6113799850511992e-04  2.2982016395556979e-04  1.3327345045679143e-03  3.4925517555847767e-04  1.3907286141017191e-04  3.2074297780127050e-03  3.4954522652151724e-04  6.7256365158529828e-03  1.1784153139643731e-03  2.9907879246108813e-03  6.8548586669115426e-03  7.2609538252107059e-03  5.4770065853342077e-03  5.6838055227089899e-03  6