<?xml version="1.0"?>
<VTKFile type="UnstructuredGrid"  version="0.1"  >
<UnstructuredGrid>
<Piece  NumberOfPoints="1259" NumberOfCells="2420">
<Points>
<DataArray  type="Float64"  NumberOfComponents="3"  format="ascii">0 0 0  0 1 0  1 1 0  1 0 0  1.1 -0.1 0  -0.1 -0.1 0  1.1 1.1 0  -0.1 1.1 0  0.497295699696873 0.499927769592435 0  0.6105329399013332 0.7333025036557458 0  0 0.9499999999997918 0  0 0.8999999999995836 0  0 0.8499999999996529 0  0 0.7999999999999998 0  0 0.7500000000003466 0  0 0.7000000000006934 0  0 0.6500000000010401 0  0 0.6000000000013869 0  0 0.5500000000017335 0  0 0.5000000000020587 0  0 0.4500000000018723 0  0 0.4000000000016644 0  0 0.3500000000014564 0  0 0.3000000000012483 0  0 0.2500000000010403 0  0 0.2000000000008322 0  0 0.1500000000006241 0  0 0.100000000000416 0  0 0.05000000000020799 0  0.04999999999989965 0 0  0.09999999999981467 0 0  0.1499999999997036 0 0  0.1999999999995579 0 0  0.2499999999994121 0 0  0.2999999999992664 0 0  0.3499999999991206 0 0  0.3999999999989749 0 0  0.4499999999988292 0 0  0.4999999999986943 0 0  0.5499999999988151 0 0  0.5999999999989468 0 0  0.6499999999990784 0 0  0.69999999999921 0 0  0.7499999999993417 0 0  0.7999999999994734 0 0  0.8499999999996051 0 0  0.8999999999997368 0 0  0.9499999999998684 0 0  1 0.04999999999989965 0  1 0.09999999999981467 0  1 0.1499999999997036 0  1 0.1999999999995579 0  1 0.2499999999994121 0  1 0.2999999999992664 0  1 0.3499999999991206 0  1 0.3999999999989749 0  1 0.4499999999988292 0  1 0.4999999999986943 0  1 0.5499999999988151 0  1 0.5999999999989468 0  1 0.6499999999990784 0  1 0.69999999999921 0  1 0.7499999999993417 0  1 0.7999999999994734 0  1 0.8499999999996051 0  1 0.8999999999997368 0  1 0.9499999999998684 0  0.9499999999997918 1 0  0.8999999999995836 1 0  0.8499999999996529 1 0  0.7999999999999998 1 0  0.7500000000003466 1 0  0.7000000000006934 1 0  0.6500000000010401 1 0  0.6000000000013869 1 0  0.5500000000017335 1 0  0.5000000000020587 1 0  0.4500000000018723 1 0  0.4000000000016644 1 0  0.3500000000014564 1 0  0.3000000000012483 1 0  0.2500000000010403 1 0  0.2000000000008322 1 0  0.1500000000006241 1 0  0.100000000000416 1 0  0.05000000000020799 1 0  -0.1 1.05000000000004 0  -0.1 1.000000000000079 0  -0.1 0.9500000000001624 0  -0.1 0.9000000000003032 0  -0.1 0.850000000000444 0  -0.1 0.8000000000005848 0  -0.1 0.7500000000007256 0  -0.1 0.7000000000008665 0  -0.1 0.6500000000010508 0  -0.1 0.6000000000012352 0  -0.1 0.5500000000014196 0  -0.1 0.500000000001539 0  -0.1 0.4500000000014195 0  -0.1 0.4000000000013 0  -0.1 0.3500000000011588 0  -0.1 0.3000000000010178 0  -0.1 0.2500000000008986 0  -0.1 0.2000000000007579 0  -0.1 0.1500000000006174 0  -0.1 0.1000000000005272 0  -0.1 0.05000000000040083 0  -0.1 2.671196597248127e-13 0  -0.1 -0.0499999999998666 0  -0.0500000000000906 -0.1 0  -1.730560139634463e-13 -0.1 0  0.04999999999975802 -0.1 0  0.09999999999961506 -0.1 0  0.1499999999994613 -0.1 0  0.199999999999302 -0.1 0  0.2499999999991446 -0.1 0  0.2999999999990088 -0.1 0  0.3499999999988296 -0.1 0  0.3999999999986936 -0.1 0  0.4499999999985143 -0.1 0  0.4999999999984002 -0.1 0  0.5499999999985247 -0.1 0  0.5999999999986493 -0.1 0  0.6499999999987955 -0.1 0  0.6999999999989417 -0.1 0  0.7499999999990659 -0.1 0  0.7999999999992116 -0.1 0  0.8499999999993573 -0.1 0  0.8999999999994526 -0.1 0  0.949999999999584 -0.1 0  0.9999999999997226 -0.1 0  1.049999999999861 -0.1 0  1.1 -0.0500000000000906 0  1.1 -1.730560139634463e-13 0  1.1 0.04999999999975802 0  1.1 0.09999999999961506 0  1.1 0.1499999999994613 0  1.1 0.199999999999302 0  1.1 0.2499999999991446 0  1.1 0.2999999999990088 0  1.1 0.3499999999988296 0  1.1 0.3999999999986936 0  1.1 0.4499999999985143 0  1.1 0.4999999999984002 0  1.1 0.5499999999985247 0  1.1 0.5999999999986493 0  1.1 0.6499999999987955 0  1.1 0.6999999999989417 0  1.1 0.7499999999990659 0  1.1 0.7999999999992116 0  1.1 0.8499999999993573 0  1.1 0.8999999999994526 0  1.1 0.949999999999584 0  1.1 0.9999999999997226 0  1.1 1.049999999999861 0  1.05000000000004 1.1 0  1.000000000000079 1.1 0  0.9500000000001624 1.1 0  0.9000000000003032 1.1 0  0.850000000000444 1.1 0  0.8000000000005848 1.1 0  0.7500000000007256 1.1 0  0.7000000000008665 1.1 0  0.6500000000010508 1.1 0  0.6000000000012352 1.1 0  0.5500000000014196 1.1 0  0.500000000001539 1.1 0  0.4500000000014195 1.1 0  0.4000000000013 1.1 0  0.3500000000011588 1.1 0  0.3000000000010178 1.1 0  0.2500000000008986 1.1 0  0.2000000000007579 1.1 0  0.1500000000006174 1.1 0  0.1000000000005272 1.1 0  0.05000000000040083 1.1 0  2.671196597248127e-13 1.1 0  -0.0499999999998666 1.1 0  0.6328402116033062 0.7226161055307473 0  0.6535356828990749 0.7095062996139854 0  0.672276863067817 0.6938652457403856 0  0.6886741925560894 0.6761494926657945 0  0.7025388979460783 0.6565894889613825 0  0.7138740940802595 0.6355501590785976 0  0.7229472700471608 0.6134991219176962 0  0.7293615817764069 0.5903871684514198 0  0.7337114893271759 0.5665973485454087 0  0.7361868842550098 0.5423432566257487 0  0.7367425799022047 0.5177852741813225 0  0.7356190696448525 0.4930837839169785 0  0.7328461842634941 0.4683912799144446 0  0.7284191020061535 0.4439001625756159 0  0.7223820081817222 0.4197339133022711 0  0.7147690477139846 0.3961362231114025 0  0.7055267786367231 0.3732705271302101 0  0.69465342909452 0.351326725686448 0  0.6821432550310927 0.3304883492142819 0  0.6678191128149502 0.3110665621284554 0  0.6517305419600397 0.2932609012825869 0  0.6338060601272356 0.27735505929099 0  0.6139087663920262 0.264059877454619 0  0.5924293538720565 0.2532503721706364 0  0.569416391400397 0.2454160112193214 0  0.5453355144411115 0.2408982898189608 0  0.5206580035664818 0.2395143438917212 0  0.4958444037711637 0.2413196494793405 0  0.4711180510438737 0.2460098395085936 0  0.4467902763861119 0.2532764409757072 0  0.4230863490003574 0.2629541576079473 0  0.4001771899729499 0.2747881544108937 0  0.3782756840838002 0.2885757837353995 0  0.3576261920327456 0.3040900771186393 0  0.3382325495260993 0.3210164903531659 0  0.3206642119183873 0.3392704214943938 0  0.3046631233591935 0.3583018897119441 0  0.290336389595938 0.3779217953048058 0  0.2776873032317574 0.3978495864064872 0  0.2666885805798146 0.4179327242492861 0  0.2573863332338161 0.4382275319999779 0  0.2499937150949572 0.4588176354090864 0  0.2450221079768435 0.4797279753079927 0  0.2430935761833774 0.5006623165516877 0  0.243634039461095 0.5204472476380726 0  0.2462143224116061 0.5395977140318986 0  0.2515349703331731 0.5595456425540388 0  0.2593389088533783 0.5793423474733849 0  0.2696419716485621 0.5983680907193915 0  0.2819009416955512 0.6166691755213154 0  0.2957432548201365 0.6345186008172311 0  0.3111433337760663 0.6519707399067776 0  0.3281267718888416 0.6688184473816281 0  0.346809282385508 0.6848512608166097 0  0.3671312632735697 0.6997394281692254 0  0.3888491803275485 0.7131958043058991 0  0.4117881044026711 0.7249490941787742 0  0.4358117479118087 0.734771859841859 0  0.4606511818965353 0.7423888009233913 0  0.4859515131751066 0.747356949617483 0  0.5115597191654657 0.7496605420885284 0  0.5370697042600522 0.7494225109460713 0  0.5622229082842366 0.7466245744071625 0  0.5867687003319455 0.7412727830750095 0  0.3046362975067892 0.6062455039525051 0  0.6300026677969295 0.2999360936794085 0  0.6659154105325724 0.673649152038767 0  0.2907392123074916 0.4216346216818476 0  0.6808754131670031 0.3703230497837049 0  0.5117994564161932 0.2618013898339779 0  0.7076633951159897 0.5766352513293522 0  0.3505724911747151 0.6571934887604179 0  0.409212210430113 0.6990135079870265 0  0.4784457268324436 0.719078860178347 0  0.5925318729315385 0.7159024191086255 0  0.4426263105214289 0.2787522324238488 0  0.7118594885690146 0.5041855088246444 0  0.7053515000215062 0.4356546602416048 0  0.2621143401324361 0.4778852616856627 0  0.3293028795258557 0.3648973008146027 0  0.3811907338054168 0.3153861158103981 0  0.2708896244000509 0.561163192323697 0  0.5763638536716422 0.2688794132166575 0  0.5240069690621834 0.7266665231390219 0  0.6992386736913719 0.6180754813589865 0  0.6597101023475423 0.332232125835117 0  0.6336998268878432 0.6942377558219165 0  0.2598268262276487 0.513179483219131 0  0.2799704522243264 0.4409647699666535 0  0.3022699545859756 0.446097479019659 0  0.3140982617119816 0.4269518498827539 0  0.3243205327745289 0.4530690374285592 0  0.3364854944523152 0.4336163340708222 0  0.3487343446064841 0.4616789228098444 0  0.356386889374471 0.4340531920277296 0  0.3338382488883176 0.4834957985502911 0  0.3599585825376048 0.4938528138507036 0  0.3417838707377124 0.5173863289250011 0  0.3696032060341036 0.5302505462244149 0  0.3152017503535736 0.502375945738867 0  0.3221374236337727 0.5371829948476273 0  0.3893970685265411 0.5026639382624694 0  0.3990544334621914 0.5437423909629657 0  0.3748760067616485 0.57626976246661 0  0.4050392448196077 0.5927626300014569 0  0.3003348579829845 0.5248430670044585 0  0.3035532517155118 0.5536381073326758 0  0.3222082544890597 0.5670808728963617 0  0.4331731030901022 0.5592604602620689 0  0.4369451822999175 0.6092230216613196 0  0.4130127265646431 0.6237274822446268 0  0.4430884689659737 0.6463789965649858 0  0.4693464386944238 0.6254441006186684 0  0.4779793670140359 0.6546184483003131 0  0.5032467668210167 0.6408215394001873 0  0.450184456057892 0.6773155186943896 0  0.2908512001674283 0.464714032769556 0  0.3247698920750076 0.4082659948805957 0  0.5011812921776115 0.592413364447319 0  0.5368610988207243 0.6099459281879764 0  0.5351817501220741 0.6564851953505928 0  0.5713122730192549 0.6354300016022707 0  0.5703374735827725 0.5858533824417747 0  0.6034944297836948 0.6025876388705547 0  0.6032193081649215 0.562504408017115 0  0.6341315660712122 0.5786900168261638 0  0.639927802867034 0.5403730400655803 0  0.6039396102921865 0.5226504335449339 0  0.6419515811478627 0.5016884814740757 0  0.6041428418944521 0.4825209765638289 0  0.6405934661629326 0.4585700871702157 0  0.6044024563614515
[...]
<PointData  Scalars="v"> 
<DataArray  type="Float64"  Name="v"  format="ascii">0.0000000000000000e+00  0.0000000000000000e+00  0.0000000000000000e+00  0.0000000000000000e+00  0.0000000000000000e+00  0.0000000000000000e+00  0.0000000000000000e+00  0.0000000000000000e+00  5.3249200392067575e-05  4.0879930315165710e-05  0.0000000000000000e+00  0.0000000000000000e+00  0.0000000000000000e+00  0.0000000000000000e+00  0.0000000000000000e+00  0.0000000000000000e+00  0.0000000000000000e+00  0.0000000000000000e+00  0.0000000000000000e+00  0.0000000000000000e+00  0.0000000000000000e+00  0.0000000000000000e+00  0.0000000000000000e+00  0.0000000000000000e+00  0.0000000000000000e+00  0.0000000000000000e+00  0.0000000000000000e+00  0.0000000000000000e+00  0.0000000000000000e+00  0.0000000000000000e+00  0.0000000000000000e+00  0.0000000000000000e+00  0.0000000000000000e+00  0.0000000000000000e+00  0.0000000000000000e+00  0.0000000000000000e+00  0.0000000000000000e+00  0.0000000000000000e+00  0.0000000000000000e+00  0.0000000000000000e+00  0.0000000000000000e+00  0.0000000000000000e+00  0.0000000000000000e+00  0.0000000000000000e+00  0.0000000000000000e+00  0.0000000000000000e+00  0.0000000000000000e+00  0.0000000000000000e+00  0.0000000000000000e+00  0.0000000000000000e+00  0.0000000000000000e+00  0.0000000000000000e+00  0.0000000000000000e+00  0.0000000000000000e+00  0.0000000000000000e+00  0.0000000000000000e+00  0.0000000000000000e+00  0.0000000000000000e+00  0.0000000000000000e+00  0.0000000000000000e+00  0.0000000000000000e+00  0.0000000000000000e+00  0.0000000000000000e+00  0.0000000000000000e+00  0.0000000000000000e+00  0.0000000000000000e+00  0.0000000000000000e+00  0.0000000000000000e+00  0.0000000000000000e+00  0.0000000000000000e+00  0.0000000000000000e+00  0.0000000000000000e+00  0.0000000000000000e+00  0.0000000000000000e+00  0.0000000000000000e+00  0.0000000000000000e+00  0.0000000000000000e+00  0.0000000000000000e+00  0.0000000000000000e+00  0.0000000000000000e+00  0.0000000000000000e+00  0.0000000000000000e+00  0.0000000000000000e+00  0.0000000000000000e+00  0.0000000000000000e+00  0.0000000000000000e+00  0.0000000000000000e+00  0.0000000000000000e+00  0.0000000000000000e+00  0.0000000000000000e+00  0.0000000000000000e+00  0.0000000000000000e+00  0.0000000000000000e+00  0.0000000000000000e+00  0.0000000000000000e+00  0.0000000000000000e+00  0.0000000000000000e+00  0.0000000000000000e+00  0.0000000000000000e+00  0.0000000000000000e+00  0.0000000000000000e+00  0.0000000000000000e+00  0.0000000000000000e+00  0.0000000000000000e+00  0.0000000000000000e+00  0.0000000000000000e+00  0.0000000000000000e+00  0.0000000000000000e+00  0.0000000000000000e+00  0.0000000000000000e+00  0.0000000000000000e+00  0.0000000000000000e+00  0.0000000000000000e+00  0.0000000000000000e+00  0.0000000000000000e+00  0.0000000000000000e+00  0.0000000000000000e+00  0.0000000000000000e+00  0.0000000000000000e+00  0.0000000000000000e+00  0.0000000000000000e+00  0.0000000000000000e+00  0.0000000000000000e+00  0.0000000000000000e+00  0.0000000000000000e+00  0.0000000000000000e+00  0.0000000000000000e+00  0.0000000000000000e+00  0.0000000000000000e+00  0.0000000000000000e+00  0.0000000000000000e+00  0.0000000000000000e+00  0.0000000000000000e+00  0.0000000000000000e+00  0.0000000000000000e+00  0.0000000000000000e+00  0.0000000000000000e+00  0.0000000000000000e+00  0.0000000000000000e+00  0.0000000000000000e+00  0.0000000000000000e+00  0.0000000000000000e+00  0.0000000000000000e+00  0.0000000000000000e+00  0.0000000000000000e+00  0.0000000000000000e+00  0.0000000000000000e+00  0.0000000000000000e+00  0.0000000000000000e+00  0.0000000000000000e+00  0.0000000000000000e+00  0.0000000000000000e+00  0.0000000000000000e+00  0.0000000000000000e+00  0.0000000000000000e+00  0.0000000000000000e+00  0.0000000000000000e+00  0.0000000000000000e+00  0.0000000000000000e+00  0.0000000000000000e+00  0.0000000000000000e+00  0.0000000000000000e+00  0.0000000000000000e+00  0.0000000000000000e+00  0.0000000000000000e+00  0.0000000000000000e+00  0.0000000000000000e+00  0.0000000000000000e+00  0.0000000000000000e+00  0.0000000000000000e+00  0.0000000000000000e+00  0.0000000000000000e+00  0.0000000000000000e+00  0.0000000000000000e+00  0.0000000000000000e+00  0.0000000000000000e+00  0.0000000000000000e+00  0.0000000000000000e+00  4.0023051219054944e-05  4.0434902349488864e-05  4.2334237908210010e-05  4.4411186495634303e-05  4.7367251129730030e-05  5.0710989253761292e-05  5.4839213670737877e-05  5.8826750345420023e-05  6.2263275397968939e-05  6.5607811863897030e-05  6.7971423917683173e-05  6.9572911272136801e-05  7.0006928564338980e-05  6.8568231117346952e-05  6.5920596581813971e-05  6.2238320848605520e-05  5.7409040807082362e-05  5.1945710372558789e-05  4.5977764999740377e-05  4.0008758246060822e-05  3.4282828545192709e-05  2.9183622807004938e-05  2.4946607223015364e-05  2.1961293709528871e-05  2.0188189407844393e-05  1.9801354620024588e-05  2.0809692729789160e-05  2.3030379349135632e-05  2.6201416476071002e-05  3.0144614215040165e-05  3.4580387621070513e-05  3.9084948855507228e-05  4.3234586844726378e-05  4.6817243532680461e-05  5.0179562712513428e-05  5.1811106799087222e-05  5.2981780192887441e-05  5.3404606635715435e-05  5.3141677604641476e-05  5.2505578473626368e-05  5.1840333996579910e-05  5.1292182495745915e-05  5.1167485639703365e-05  5.1410858916162983e-05  5.2368675042337889e-05  5.3044848061291957e-05  5.4560116289845266e-05  5.6922536837854757e-05  5.9539420119269614e-05  6.1959619679624665e-05  6.4262191362105580e-05  6.6447808134665953e-05  6.8098718830472601e-05  6.8730538472806398e-05  6.8444361362006667e-05  6.7242315928434487e-05  6.5151068691263574e-05  6.2233629236143969e-05  5.8753839076841921e-05  5.4989806221665225e-05  5.1112037215411201e-05  4.7569504925511333e-05  4.4521334076681577e-05  4.2077691348964720e-05  5.4144421300976516e-05  2.9269499149615480e-05  3.9399625157612018e-05  4.6666582117806944e-05  4.7236677102150349e-05  2.1503341023179768e-05  5.2147603466895467e-05  5.8622663653208006e-05  5.7439956288850553e-05  4.9742083996097796e-05  3.8175753090057010e-05  2.9856917327966090e-05  5.8476707337887922e-05  5.7730556733683261e-05  4.6417397756994123e-05  4.5790112697788934e-05  3.9720754434069842e-05  4.9890969812514988e-05  2.0973937768508545e-05  4.4497811002054898e-05  4.6947867973330406e-05  3.8349950196469658e-05  3.7284118292544994e-05  4.6880080754897213e-05  4.6396795449787081e-05  4.6655796019094336e-05  4.6744428070716059e-05  4.8256087241286305e-05  4.8030403236452176e-05  4.9973367456054778e-05  4.8843324859213972e-05  5.0156597437739104e-05  5.1785633698134521e-05  5.2085348332644013e-05  5.3823349813574811e-05  4.9433184973732938e-05  5.1414183718210979e-05  5.2967902845985368e-05  5.4987951690857313e-05  5.6020199218742044e-05  5.7018562898650213e-05  4.8870621839485745e-05  5.0392458644853732e-05  5.2590371329515865e-05  5.5792995582238182e-05  5.6540467387808561e-05  5.7413502228377363e-05  5.5994246768691675e-05  5.5023746218789720e-05  5.3586492251544063e-05  5.2385739208626067e-05  5.4138662172280972e-05  4.6332598933694689e-05  4.6500066241736392e-05  5.3985018274082394e-05  5.1751142551539549e-05  4.8943438188850753e-05  4.8074222702142461e-05  5.1711996439496643e-05  4.9612754127567907e-05  5.2729534775017593e-05  5.1451406033659981e-05  5.4408124739770479e-05  5.4124216555081822e-05  5.5806771402154794e-05  5.3705916696359786e-05  5.4463156188261133e-05  5.1019255512365776e-05  5.0919360722596065e-05  4.6084901013280751e-05  4.7062371739045468e-05  4.1141421777335217e-05  4.3056827881591510e-05  3.5968606451219678e-05  3.9515762497984894e-05  3.4321132093338321e-05  3.3870834643986269e-05  3.6711768791056784e-05  4.1829318308083080e-05  4.7240098194080933e-05  4.1436097237254369e-05  4.4800199487920389e-05  4.4609299561818032e-05  4.7212053399230717e-05  3.5718914893851121e-05  5.3025294823261705e-05  3.1653616309487972e-05  2.9019481713246397e-05  5.6260020282007634e-05  4.0276510949775144e-05  4.5274690888618499e-05  4.9592899847670168e-05  4.4115391669916240e-05  4.4864300429495195e-05  5.6455134983755897e-05  4.6319758045123873e-05  4.3858802873709714e-05  5.4859865919502353e-05  5.6689115813818732e-05  4.9322106370459261e-05  2.7272101486837135e-05  2.9885221276493747e-05  2.7651943532194287e-05  2.3940110801869237e-05  3.2108199603584649e-05  2.6556465690730818e-05  5.3195216023411448e-05  5.5725976535102116e-05  5.4574220540662314e-05  4.5704492619594546e-05  4.1652602655185508e-05  4.2984751178506008e-05  4.4288199734175637e-05  4.7224368750358103e-05  4.6868687708715183e-05  4.9777609781303137e-05  4.8172925120186307e-05  4.9453587329027700e-05  5.0493614490682018e-05  5.1114679676054850e-05  3.8834863401724127e-05  3.9872535352787255e-05  5.1964690251594488e-05  5.7144974986087288e-05  5.7332281367334657e-05  5.5639024655572655e-05  5.6549133105030656e-05  5.6666913393915993e-05  5.3485456441757526e-05  5.4081250353064613e-05  4.8394982627171740e-05  5.0407704498377313e-05  2.6747339418357095e-05  4.8399237152953635e-05  4.7618304122114438e-05  4.6787154418489861e-05  4.4526488031091634e-05  4.4773775695422865e-05  4.6967006375054665e-05  5.1014877058843049e-05  5.2385607387020312e-05  4.2593055342977255e-05  5.6575645918334301e-05  5.4368328384660893e-05  3.6680091789590259e-05  5.7752242431026119e-05  4.6643350132041951e-05  3.3312628888352861e-05  5.9253891690403390e-05  5.5644505601446091e-05  4.4978686858762184e-05  5.9035682709764155e-05  5.3074020659164477e-05  5.9959557641503516e-05  5.7913551886906644e-05  5.5153845788065980e-05  4.7376773696575863e-05  5.1616538199075118e-05  5.3818209976677151e-05  4.1951945491320719e-05  5.5477003264117916e-05  4.6403965515526636e-05  2.3639743947330567e-05  3.9776086412095226e-05  4.0988883544640494e-05  4.6274588617375915e-05  4.2978671320507567e-05  4.3437399313205017e-05  2.0242793180697880e-05  5.5769543792911445e-05  5.4072484376589172e-05  3.5517709133980180e-05  3.7438446217633897e-05  5.5109553319995735e-05  5.5443153011771572e-05  4.8046480684713395e-05  3.3668825982726535e-05  3.2510741036510412e-05  2.5645924444687405e-05  5.1172769723714953e-05  5.0490325363477750e-05  4.5558026427191849e-05  4.3065645281474984e-05  5.9547970412764594e-05  4.1150015557725102e-05  3.9336115489838888e-05  4.1103512805498568e-05  2.0172936223036792e-05  4.6104298309197654e-05  4.8869627024943248e-05  5.3602268246039679e-05  2.3392268965570918e-05  5.3436866529629119e-05  4.5957605541819935e-05  4.7111410125571311e-05  5.6278821152237284e-05  3.2716133199919332e-05  2.2833052990275392e-05  4.7269299511547167e-05  4.6919894629880738e-05  4.0786843629432478e-05  5.4397894488383639e-05  4.2051135348262838e-05  3.0579312924427005e-05  4.9758924416925942e-05  5.1729736340124988e-05  3.8370505622201206e-05  3.6722588537403008e-05  4.4982318023441129e-05  4.4060437681360205e-05  2.4866612683776230e-05  2.9839549405250000e-05  3.6461541280043900e-05  3.8341840043218564e-05  2.6598681029009901e-05  5.1469214271085770e-05  5.2054452034936778e-05  3.9600275677616681e-05  4.1687065567898010e-05  5.7230340716782586e-05  5.4537322190893915e-05  4.6062791236960934e-05  5.7412072610548323e-05  2.3172590531320700e-05  3.8903358260539240e-05  5.3107185765824264e-05  5.0736925949628682e-05  3.8419729908115034e-05  5.7153769900831334e-05  5.3884061013601555e-05  5.4394808990486798e-05  4.7265766048010821e-05  4.7252309374177061e-05  5.6927143820008622e-05  5.7470410307128358e-05  3.9904303225882286e-05  4.6916076544259059e-05  4.7391362404843935e-05  5.5771801593604060e-05  4.2225220085120677e-05  5.4658079359986008e-05  4.5076091422940466e-05  2.8996095594395567e-05  4.2911069195045747e-05  5.2610223405107577e-05  5.6744098884211120e-05  4.9072729343006820e-05  4.3168572059113964e-05  4.1865756706851909e-05  5.1637829493845465e-05  5.3709480612418743e-05  5.7285130912782125e-05  5.1384143981857905e-05  4.6581828402896451e-05  2.3906484259289706e-05  5.1400119013176785e-05  3.4139147014489076e-05  4.8323448648868319e-05  3.8193078907599915e-05  4.8850530470698484e-05  5.2774763522209697e-05  5.3524862142456558e-05  5.6216029119586542e-05  5.3096599666272274e-05  5.6466684767884734e-05  5.8398342780217512e-05  4.9708045728508144e-05  7.3775105658416916e-05  4.0445320827141102e-05  4.6734100694876824e-05  7.6701027587646370e-05  4.3354561880576997e-05  2.8799734886526991e-05  5.8696504736199235e-05  6.1412430338116325e-05  7.0668467046666432e-05  3.4976561936975174e-05  5.4208064816118896e-05  6.9692673743229152e-06  6.3659374645880842e-05  9.0989291893838492e-06  6.5086561768681791e-05  8.3842807177383355e-06  5.7656404753374370e-05  1.3080821111022954e-05  8.3148803187520837e-06  4.7314211833292492e-05  7.5133070809430951e-05  1.4133976367235918e-05  2.2557935299412803e-05  2.0327278076695189e-05  7.5137523246787514e-05  7.3774416444313843e-06  5.7020116062368691e-06  5.5983116528124670e-05  1.3783650830306591e-05  7.4569848961366131e-06  1.6540245389363649e-05  5.9624024143239901e-05  1.0149207865393376e-05  7.9032535416610650e-05  1.1600320292155830e-05  1.5710211243518538e-05  5.2372508922958533e-06  2.2252765465930773e-05  2.1042356237456864e-05  5.6136236636171737e-05  4.5167235149957709e-06  1.7574346134102068e-05  1.5071257730768168e-05  4.0504302723818263e-06  9.1245761737642877e-06  5.7492620690625082e-06  2.2674418046658603e-05  4.4591054984559007e-06  4.7075770736227333e-06  1.9449186095538820e-05  8.8911541046250502e-06  5.0926047121998044e-06  5.6835460608237235e-05  5.2841844878223207e-05  5.2736657822408983e-05  5.2330458501743180e-05  4.6776518764146753e-05  4.5921417386943255e-05  5.1245046070380368e-05  4.4024097901850842e-05  4.9658604579716447e-05  4.0812376866366247e-05  4.7137338276029996e-05  3.9561755222384260e-05  5.6005308859719603e-05  5.2894034235670822e-05  4.4204690870273912e-05  5.0051891016285567e-05  4.0521817711858763e-05  4.6383192737474567e-05  5.6456904875469797e-05  5.0922919918635616e-05  4.1628425196846206e-05  4.5343552160289065e-05  5.3595595407993489e-05  4.7410457393942202e-05  5.6909422270492228e-05  4.8012064734672924e-05  5.5616498648752272e-05  4.6209419507833525e-05  5.2858214769209139e-05  3.8632208854597115e-05  6.4162150107062183e-05  4.2968824508461993e-05  4.8634179575137850e-05  5.8500063734035423e-05  5.3532146848361828e-05  4.3162139316509681e-05  4.7511694200991592e-05  3.6990924301845569e-05  4.0922130400808497e-05  5.0433362671103608e-05  4.3561951598080803e-05  3.8748390707228901e-05  3.1079352818126208e-05  6.3323763402765580e-05  6.7256474360467540e-05  5.2262500917510537e-05  4.5624531163630219e-05  3.7015376016454725e-05  3.9779606241430246e-05  3.0872457290070907e-05  3.2703508101748923e-05  3.9395494519990161e-05  3.3487764270991193e-05  2.7412517674515038e-05  2.8818887901964928e-05  3.4848791948496943e-05  3.0151537256919928e-05  2.4421580912970710e-05  2.6468449868593303e-05  3.2424016573799597e-05  2.8465006326238486e-05  2.2686135062573694e-05  2.4734394239986371e-05  3.0864518717699993e-05  2.6675428695122395e-05  3.2635872678474035e-05  2.7885076416515983e-05  3.4140269238594969e-05  2.8389223486847198e-05  3.4887622552163900e-05  2.2320272376251782e-05  2.7436379356571810e-05  3.3706323893003291e-05  4.1899718444706023e-05  4.0573912814420465e-05  3.9529025905373543e-05  5.0366682741918060e-05  4.7753372153781704e-05  1.8989539597612514e-05  3.7442860342606515e-05  4.3814823889675170e-05  5.5749238627978791e-05  4.9867911429497252e-05  6.2042007367523827e-05  5.5132129854079333e-05  6.5771323742246841e-05  6.0071436729303446e-05  4.7056334100239388e-05  5.0268959947855310e-05  6.3007328491379865e-05  5.2362505159298816e-05  6.1609906788419593e-05  5.1928158840534253e-05  6.0455256815693978e-05  4.9251579585810348e-05  5.5678403055040980e-05  4.5622730551353981e-05  4.8633074264416800e-05  4.0853722597642587e-05  4.2601724858158089e-05  3.5343087818085096e-05  3.5952132423877410e-05  2.9488393066661626e-05  2.9187493462318235e-05  2.3715371181936349e-05  2.2439496265271874e-05  3.2889291454506908e-05  2.7332212383212310e-05  2.1000727299966531e-05  2.3113928545498873e-05  1.8152015798029553e-05  2.5037936666577614e-05  1.8400945488304996e-05  1.4737816632909236e-05  4.3798904261163008e-05  2.1529450412227579e-05  1.5687344329744497e-05  1.8201770324456411e-05  1.4013457662075158e-05  1.5059917507478058e-05  1.2079623826642359e-05  1.3903916446924017e-05  1.1120744755048036e-05  1.4109457810454507e-05  1.9153210652695846e-05  6.4363237024289553e-05  2.1799578985915698e-05  1.6743499479830165e-05  5.8653540977489797e-05  1.1024861826885965e-05  1.4422498286613902e-05  9.8713284838949910e-06  6.5207581580404740e-05  3.1752069936879323e-05  4.1263257833131874e-05  1.6983372834555743e-05  1.8577787128051166e-05  7.0429191673167802e-05  4.9386080743167785e-05  1.7622654491352324e-05  1.9518393448325828e-05  1.5452028798127803e-05  2.0697182053210887e-05  1.6546626812304430e-05  2.2219611477526218e-05  2.6728007342858833e-05  2.8373973385583098e-05  2.3214196584110679e-05  2.9129922469104465e-05  2.3333752913024754e-05  2.8782800733991327e-05  3.5126121428622754e-05  3.3885217406951970e-05  4.0360857792178583e-05  3.8163962901056978e-05  3.1517360842350930e-05  3.4897465165443702e-05  2.8148814727387858e-05  4.1479145767468321e-05  3.7080404057851553e-05  4.3507634337400887e-05  3.7882201202239420e-05  4.4211702093472797e-05  3.7546904472996800e-05  4.3705224395463612e-05  3.1880012127041118e-05  2.4895875817240008e-05  2.1733365743434338e-05  4.9884676410887234e-05  3.3046881382938979e-05  4.1470610193183282e-05  4.6658387059071764e-05  3.6124433687454657e-05  4.3343952909496680e-05  2.9652211584537258e-05  4.9510669400559789e-05  4.8266875084089306e-05  4.1549968434651256e-05  5.3346425858761646e-05  2.3969349410594209e-05  1.7706280800600778e-05  1.5430555065581486e-05  1.8684677567426793e-05  2.2494777209556968e-05  1.7349272415477850e-05  2.8138401065615822e-05  1.2992416183235065e-05  1.3879274235906301e-05  3.9154679992203914e-05  2.0948911425378471e-05  3.3381662033868340e-06  3.2128006778516325e-06  4.5157654827300133e-05  3.8960015979165263e-05  7.1240948371052888e-05  7.3753194142961551e-05  1.5627254228158580e-05  5.9272027041554499e-05  6.4785329806457424e-05  6.4184296553032586e-05  2.2746860017782377e-05  3.6824443363735548e-05  3.2929397905325892e-05  1.1437758630426691e-05  1.7068545874276848e-05  2.4571416695730285e-05  5.6203544956329727e-05  3.1374452801166219e-05  3.6658141372070585e-05  2.1981879462548554e-05  6.0420308517182851e-05  6.9826043559261441e-05  7.0559323723723405e-05  7.3522438808702528e-05  6.1308924653213226e-05  1.1944911517575606e-05  7.5466931560644906e-05  1.2675480080879901e-05  6.6497742344475398e-05  3.2522472026800382e-05  5.0186087245611686e-05  5.0972758610606983e-05  4.6106095196331255e-05  4.3612335094219288e-05  2.1591544916628852e-05  4.7362390081019228e-05  5.1970890580965838e-05  5.0814560003877178e-05  2.6786498248434116e-05  2.0794516152103908e-05  2.3337468296648713e-05  1.1020272149705837e-05  5.5484129053273885e-05  5.4108583633196775e-05  4.4465085331388340e-05  4.1093248477142752e-05  7.0437125582493952e-05  4.2328065075533292e-05  5.1941510518436468e-05  5.5276358478062309e-05  1.1567603528027118e-05  5.5932286373912416e-05  3.9100541616660594e-05  3.2207269936771386e-05  2.0543477457955869e-05  1.7674986576511415e-05  5.1880227731846352e-05  4.7617858888261912e-05  7.5642235150710514e-05  3.4067459079765025e-05  2.9980604387184039e-05  3.5766051894078237e-05  4.1821373994214326e-05  4.7337916776674050e-05  5.4499627122067080e-05  5.7458070369190941e-05  6.3648859801725976e-05  5.0032295987061132e-05  3.8082523244886119e-05  3.0990930556715058e-05  4.3480672237575417e-05  4.1629499282254535e-05  4.1923734791075138e-05  4.4380968170088214e-05  4.2317060593348835e-05  2.0695544914995309e-05  7.8131147155965373e-06  5.5337467691588652e-05  4.7434564736386256e-05  2