<?xml version="1.0"?>
<VTKFile type="UnstructuredGrid"  version="0.1"  >
<UnstructuredGrid>
<Piece  NumberOfPoints="1078" NumberOfCells="2058">
<Points>
<DataArray  type="Float64"  NumberOfComponents="3"  format="ascii">0 0 0  0 1 0  1 1 0  1 0 0  1.1 -0.1 0  -0.1 -0.1 0  1.1 1.1 0  -0.1 1.1 0  0.4957222862652572 0.5493567911793389 0  0 0.9499999999997918 0  0 0.8999999999995836 0  0 0.8499999999996529 0  0 0.7999999999999998 0  0 0.7500000000003466 0  0 0.7000000000006934 0  0 0.6500000000010401 0  0 0.6000000000013869 0  0 0.5500000000017335 0  0 0.5000000000020587 0  0 0.4500000000018723 0  0 0.4000000000016644 0  0 0.3500000000014564 0  0 0.3000000000012483 0  0 0.2500000000010403 0  0 0.2000000000008322 0  0 0.1500000000006241 0  0 0.100000000000416 0  0 0.05000000000020799 0  0.04999999999989965 0 0  0.09999999999981467 0 0  0.1499999999997036 0 0  0.1999999999995579 0 0  0.2499999999994121 0 0  0.2999999999992664 0 0  0.3499999999991206 0 0  0.3999999999989749 0 0  0.4499999999988292 0 0  0.4999999999986943 0 0  0.5499999999988151 0 0  0.5999999999989468 0 0  0.6499999999990784 0 0  0.69999999999921 0 0  0.7499999999993417 0 0  0.7999999999994734 0 0  0.8499999999996051 0 0  0.8999999999997368 0 0  0.9499999999998684 0 0  1 0.04999999999989965 0  1 0.09999999999981467 0  1 0.1499999999997036 0  1 0.1999999999995579 0  1 0.2499999999994121 0  1 0.2999999999992664 0  1 0.3499999999991206 0  1 0.3999999999989749 0  1 0.4499999999988292 0  1 0.4999999999986943 0  1 0.5499999999988151 0  1 0.5999999999989468 0  1 0.6499999999990784 0  1 0.69999999999921 0  1 0.7499999999993417 0  1 0.7999999999994734 0  1 0.8499999999996051 0  1 0.8999999999997368 0  1 0.9499999999998684 0  0.9499999999997918 1 0  0.8999999999995836 1 0  0.8499999999996529 1 0  0.7999999999999998 1 0  0.7500000000003466 1 0  0.7000000000006934 1 0  0.6500000000010401 1 0  0.6000000000013869 1 0  0.5500000000017335 1 0  0.5000000000020587 1 0  0.4500000000018723 1 0  0.4000000000016644 1 0  0.3500000000014564 1 0  0.3000000000012483 1 0  0.2500000000010403 1 0  0.2000000000008322 1 0  0.1500000000006241 1 0  0.100000000000416 1 0  0.05000000000020799 1 0  -0.1 1.05000000000004 0  -0.1 1.000000000000079 0  -0.1 0.9500000000001624 0  -0.1 0.9000000000003032 0  -0.1 0.850000000000444 0  -0.1 0.8000000000005848 0  -0.1 0.7500000000007256 0  -0.1 0.7000000000008665 0  -0.1 0.6500000000010508 0  -0.1 0.6000000000012352 0  -0.1 0.5500000000014196 0  -0.1 0.500000000001539 0  -0.1 0.4500000000014195 0  -0.1 0.4000000000013 0  -0.1 0.3500000000011588 0  -0.1 0.3000000000010178 0  -0.1 0.2500000000008986 0  -0.1 0.2000000000007579 0  -0.1 0.1500000000006174 0  -0.1 0.1000000000005272 0  -0.1 0.05000000000040083 0  -0.1 2.671196597248127e-13 0  -0.1 -0.0499999999998666 0  -0.0500000000000906 -0.1 0  -1.730560139634463e-13 -0.1 0  0.04999999999975802 -0.1 0  0.09999999999961506 -0.1 0  0.1499999999994613 -0.1 0  0.199999999999302 -0.1 0  0.2499999999991446 -0.1 0  0.2999999999990088 -0.1 0  0.3499999999988296 -0.1 0  0.3999999999986936 -0.1 0  0.4499999999985143 -0.1 0  0.4999999999984002 -0.1 0  0.5499999999985247 -0.1 0  0.5999999999986493 -0.1 0  0.6499999999987955 -0.1 0  0.6999999999989417 -0.1 0  0.7499999999990659 -0.1 0  0.7999999999992116 -0.1 0  0.8499999999993573 -0.1 0  0.8999999999994526 -0.1 0  0.949999999999584 -0.1 0  0.9999999999997226 -0.1 0  1.049999999999861 -0.1 0  1.1 -0.0500000000000906 0  1.1 -1.730560139634463e-13 0  1.1 0.04999999999975802 0  1.1 0.09999999999961506 0  1.1 0.1499999999994613 0  1.1 0.199999999999302 0  1.1 0.2499999999991446 0  1.1 0.2999999999990088 0  1.1 0.3499999999988296 0  1.1 0.3999999999986936 0  1.1 0.4499999999985143 0  1.1 0.4999999999984002 0  1.1 0.5499999999985247 0  1.1 0.5999999999986493 0  1.1 0.6499999999987955 0  1.1 0.6999999999989417 0  1.1 0.7499999999990659 0  1.1 0.7999999999992116 0  1.1 0.8499999999993573 0  1.1 0.8999999999994526 0  1.1 0.949999999999584 0  1.1 0.9999999999997226 0  1.1 1.049999999999861 0  1.05000000000004 1.1 0  1.000000000000079 1.1 0  0.9500000000001624 1.1 0  0.9000000000003032 1.1 0  0.850000000000444 1.1 0  0.8000000000005848 1.1 0  0.7500000000007256 1.1 0  0.7000000000008665 1.1 0  0.6500000000010508 1.1 0  0.6000000000012352 1.1 0  0.5500000000014196 1.1 0  0.500000000001539 1.1 0  0.4500000000014195 1.1 0  0.4000000000013 1.1 0  0.3500000000011588 1.1 0  0.3000000000010178 1.1 0  0.2500000000008986 1.1 0  0.2000000000007579 1.1 0  0.1500000000006174 1.1 0  0.1000000000005272 1.1 0  0.05000000000040083 1.1 0  2.671196597248127e-13 1.1 0  -0.0499999999998666 1.1 0  0.526093874079695 0.5447807256043303 0  0.552239489228641 0.5270782572152239 0  0.561074877352534 0.4966816721581151 0  0.5624465562755612 0.4659746328836536 0  0.5616033910216329 0.4355070586963373 0  0.558473894112019 0.4053139423484443 0  0.5526979683621166 0.3754572017144364 0  0.5433834728020958 0.3463715576971963 0  0.5282167182938737 0.3194834480861049 0  0.5033827650827469 0.3010542960995979 0  0.4734383743164251 0.3011032338660389 0  0.4454373368301983 0.3095763109027618 0  0.4189210115203139 0.3206097225375241 0  0.3932007690546007 0.3329882730477426 0  0.3681001972139277 0.3462814679387141 0  0.343534849882116 0.3602785103375046 0  0.3194593316295683 0.3748747947990634 0  0.2959309812583324 0.3900311988629136 0  0.2729717053750239 0.4058019518794949 0  0.2507757732665304 0.4224662548125111 0  0.2298317990413433 0.4406251184358742 0  0.2120013516898252 0.4621215551574704 0  0.2163775785058729 0.4876836316516235 0  0.2408035846716854 0.5027153860138007 0  0.2672286452421009 0.5131221455396812 0  0.294382029419706 0.5214796698388212 0  0.3220425812598142 0.5285297802922463 0  0.3501142549250203 0.5345880712234755 0  0.3785319234896956 0.5397051108684762 0  0.4073043547535218 0.5439084849802028 0  0.4363867595353218 0.5471775153093826 0  0.4658136804960336 0.5492073004226641 0  0.5342126429112726 0.4230925425832983 0  0.3929424975193967 0.3645573859866997 0  0.4288517523230778 0.5175044742216156 0  0.3210280943282785 0.4045753389938305 0  0.3668734263010038 0.5112702377071866 0  0.4446659286509205 0.3417741922873688 0  0.4831164610135125 0.5215203143684595 0  0.3124408982269671 0.4995772587473265 0  0.5226803762298089 0.3667397659152412 0  0.276707713167021 0.4359521340815247 0  0.5343447513592675 0.4812264958255381 0  0.4954537218871757 0.325544697183115 0  0.2607620674408342 0.4828473829110714 0  0.2360732065859599 0.4712449894625225 0  0.5307634255649467 0.5116439530295301 0  0.5031763239271065 0.4968586563748447 0  0.5106279875768127 0.4641836284426304 0  0.4825807830053194 0.4750106849393084 0  0.4872071710239226 0.4451814582000976 0  0.4595342825766077 0.4552880290942077 0  0.4644107132101535 0.4246296290137723 0  0.4365689383363455 0.4350184559562726 0  0.4409970378054326 0.4044222129843863 0  0.413464570122085 0.414619294844329 0  0.4089497139706708 0.4452495495838801 0  0.3861436797818333 0.4246176449271605 0  0.4687975934289373 0.3940405157052914 0  0.3818711289728414 0.4548562177936659 0  0.360291071453386 0.4345957202529413 0  0.3563043290274153 0.4633197215006246 0  0.4037430387846003 0.4759705635487309 0  0.3652483697872057 0.4050876264786153 0  0.3348832460070128 0.444136979570289 0  0.4517769785146317 0.4883773233017918 0  0.4441576575189398 0.3738140046974682 0  0.4695470669749081 0.3632725741184349 0  0.4908670828580975 0.4159752985162629 0  0.4316289763174527 0.4657676723095111 0  0.4992916724247041 0.3862457150231404 0  0.41704968451455 0.3843775143847666 0  0.3905668008219506 0.394756138109397 0  0.3984165292768118 0.5090692712130087 0  0.3394718860567037 0.5061427526215467 0  0.4567900654080544 0.5204735757060703 0  0.2979746871013768 0.4190533591942708 0  0.3055209625589655 0.4486580675144657 0  0.4185546051082625 0.3530398142827892 0  0.3298083231549374 0.4752718899358735 0  0.2862963254973048 0.492959779151761 0  0.2557760659150523 0.4529591593870625 0  0.3672376758782301 0.3763053261245644 0  0.5304200944346917 0.3945456545630567 0  0.5360325693626868 0.4514326089247855 0  0.3784089240733238 0.483555754769613 0  0.2798017148707007 0.4648542283208324 0  0.5173419890369257 0.3433044338687592 0  0.3433956373073982 0.3893858897271034 0  0.4709173897453588 0.3332816368696954 0  0.4242885218821097 0.4912246817282289 0  0.4963695573115146 0.3555925971344346 0  0.5124046917886769 0.4359597190951589 0  0.3028294866130932 0.4762836986661254 0  0.3413963020977679 0.4168226213029753 0  0.4746611519066939 0.499419224640962 0  0.507158841242407 0.5251648905451949 0  0.3542188595933798 0.4879326646985007 0  0.5134929275753909 0.4111814113082484 0  0.3180361406373846 0.4271196774143627 0  0.5637886188023771 0.3567507105362504 0  0.5800919136983621 0.4515211487680675 0  0.3330737689048612 0.5493547110664225 0  0.5100859048382689 0.5642969594986156 0  0.9706987859469378 0.6942629168846431 0  0.6373967427878726 0.9759164946870794 0  0.419134231617298 0.564504325095645 0  0.9799452871756609 0.5341315981822449 0  0.9707164390291287 0.2746989261030127 0  0.2833001002120824 0.9659100998135014 0  0.321167191395278 0.3495970714573636 0  0.3965369387466819 0.3076323374543192 0  0.4371739321795521 0.9735156121610667 0  0.2502796879161073 0.5244634748201255 0  0.05624481152918799 0.7440244080212173 0  0.6962042180163531 0.04517464631244106 0  0.248986263188954 0.3967497660969165 0  0.5735657891547277 0.5144206675005144 0  0.7926649082291836 0.975369254085814 0  0.2341313992867527 0.0448270557967003 0  0.05302639048126121 0.2334055245186614 0  0.2082064038372894 0.4353024809140357 0  0.5474535886206426 0.04877633363442493 0  0.3924930657997664 0.04481516584630529 0  0.8407729155601579 0.04390537037446561 0  0.1962221151113004 0.4769823658733103 0  0.4547798925891353 0.2890272768773717 0  0.05236181984885571 0.5894973575340156 0  0.97751493624193 0.8415535747518065 0  0.04936022222126195 0.3321662132110629 0  0.566274897609723 0.5403702588827 0  0.5884768294402942 0.5298775648451031 0  0.5824861
[...]
<PointData  Scalars="v"> 
<DataArray  type="Float64"  Name="v"  format="ascii">0.0000000000000000e+00  0.0000000000000000e+00  0.0000000000000000e+00  0.0000000000000000e+00  0.0000000000000000e+00  0.0000000000000000e+00  0.0000000000000000e+00  0.0000000000000000e+00  7.2897759230963954e-03  0.0000000000000000e+00  0.0000000000000000e+00  0.0000000000000000e+00  0.0000000000000000e+00  0.0000000000000000e+00  0.0000000000000000e+00  0.0000000000000000e+00  0.0000000000000000e+00  0.0000000000000000e+00  0.0000000000000000e+00  0.0000000000000000e+00  0.0000000000000000e+00  0.0000000000000000e+00  0.0000000000000000e+00  0.0000000000000000e+00  0.0000000000000000e+00  0.0000000000000000e+00  0.0000000000000000e+00  0.0000000000000000e+00  0.0000000000000000e+00  0.0000000000000000e+00  0.0000000000000000e+00  0.0000000000000000e+00  0.0000000000000000e+00  0.0000000000000000e+00  0.0000000000000000e+00  0.0000000000000000e+00  0.0000000000000000e+00  0.0000000000000000e+00  0.0000000000000000e+00  0.0000000000000000e+00  0.0000000000000000e+00  0.0000000000000000e+00  0.0000000000000000e+00  0.0000000000000000e+00  0.0000000000000000e+00  0.0000000000000000e+00  0.0000000000000000e+00  0.0000000000000000e+00  0.0000000000000000e+00  0.0000000000000000e+00  0.0000000000000000e+00  0.0000000000000000e+00  0.0000000000000000e+00  0.0000000000000000e+00  0.0000000000000000e+00  0.0000000000000000e+00  0.0000000000000000e+00  0.0000000000000000e+00  0.0000000000000000e+00  0.0000000000000000e+00  0.0000000000000000e+00  0.0000000000000000e+00  0.0000000000000000e+00  0.0000000000000000e+00  0.0000000000000000e+00  0.0000000000000000e+00  0.0000000000000000e+00  0.0000000000000000e+00  0.0000000000000000e+00  0.0000000000000000e+00  0.0000000000000000e+00  0.0000000000000000e+00  0.0000000000000000e+00  0.0000000000000000e+00  0.0000000000000000e+00  0.0000000000000000e+00  0.0000000000000000e+00  0.0000000000000000e+00  0.0000000000000000e+00  0.0000000000000000e+00  0.0000000000000000e+00  0.0000000000000000e+00  0.0000000000000000e+00  0.0000000000000000e+00  0.0000000000000000e+00  0.0000000000000000e+00  0.0000000000000000e+00  0.0000000000000000e+00  0.0000000000000000e+00  0.0000000000000000e+00  0.0000000000000000e+00  0.0000000000000000e+00  0.0000000000000000e+00  0.0000000000000000e+00  0.0000000000000000e+00  0.0000000000000000e+00  0.0000000000000000e+00  0.0000000000000000e+00  0.0000000000000000e+00  0.0000000000000000e+00  0.0000000000000000e+00  0.0000000000000000e+00  0.0000000000000000e+00  0.0000000000000000e+00  0.0000000000000000e+00  0.0000000000000000e+00  0.0000000000000000e+00  0.0000000000000000e+00  0.0000000000000000e+00  0.0000000000000000e+00  0.0000000000000000e+00  0.0000000000000000e+00  0.0000000000000000e+00  0.0000000000000000e+00  0.0000000000000000e+00  0.0000000000000000e+00  0.0000000000000000e+00  0.0000000000000000e+00  0.0000000000000000e+00  0.0000000000000000e+00  0.0000000000000000e+00  0.0000000000000000e+00  0.0000000000000000e+00  0.0000000000000000e+00  0.0000000000000000e+00  0.0000000000000000e+00  0.0000000000000000e+00  0.0000000000000000e+00  0.0000000000000000e+00  0.0000000000000000e+00  0.0000000000000000e+00  0.0000000000000000e+00  0.0000000000000000e+00  0.0000000000000000e+00  0.0000000000000000e+00  0.0000000000000000e+00  0.0000000000000000e+00  0.0000000000000000e+00  0.0000000000000000e+00  0.0000000000000000e+00  0.0000000000000000e+00  0.0000000000000000e+00  0.0000000000000000e+00  0.0000000000000000e+00  0.0000000000000000e+00  0.0000000000000000e+00  0.0000000000000000e+00  0.0000000000000000e+00  0.0000000000000000e+00  0.0000000000000000e+00  0.0000000000000000e+00  0.0000000000000000e+00  0.0000000000000000e+00  0.0000000000000000e+00  0.0000000000000000e+00  0.0000000000000000e+00  0.0000000000000000e+00  0.0000000000000000e+00  0.0000000000000000e+00  0.0000000000000000e+00  0.0000000000000000e+00  0.0000000000000000e+00  0.0000000000000000e+00  0.0000000000000000e+00  0.0000000000000000e+00  0.0000000000000000e+00  0.0000000000000000e+00  0.0000000000000000e+00  0.0000000000000000e+00  0.0000000000000000e+00  0.0000000000000000e+00  0.0000000000000000e+00  0.0000000000000000e+00  0.0000000000000000e+00  0.0000000000000000e+00  0.0000000000000000e+00  0.0000000000000000e+00  7.4618677056089155e-03  7.6295758132887970e-03  7.3113086392483945e-03  7.1643986980711727e-03  7.0191118195269868e-03  6.8116150698081029e-03  6.5544285291369887e-03  6.2901747203633982e-03  6.0279808278358689e-03  5.8646595584404167e-03  5.6007238334697864e-03  5.5429095860981157e-03  5.5314035761643617e-03  5.4799022230207295e-03  5.4065052285095323e-03  5.2981052534708415e-03  5.1496583951841559e-03  4.9712669275723508e-03  4.7480194206891485e-03  4.4941375689828006e-03  4.2694776230040215e-03  4.2503782573869416e-03  4.3909696753403598e-03  4.6208228982423548e-03  5.0312059848621445e-03  5.4592476949000815e-03  5.8432835689417977e-03  6.1958227718111681e-03  6.4842304143550508e-03  6.7442862099295949e-03  6.9814384157376825e-03  7.1916197326064024e-03  5.8514044436887552e-03  4.8713844590964894e-03  5.8000776565867657e-03  4.5444700087161616e-03  5.3730926519498746e-03  4.9451095696253031e-03  6.0321830855715785e-03  4.7885274779861367e-03  5.4185435458843252e-03  4.1524679960035921e-03  6.0500265531879416e-03  5.0559348577067587e-03  4.0915235348969719e-03  3.8700425943420744e-03  6.2158860831882197e-03  5.9141041039977183e-03  5.8698881904020702e-03  5.8702784686890446e-03  5.8031690455658709e-03  5.7826629219966692e-03  5.6530916095873769e-03  5.5747811405342639e-03  5.4096181897151383e-03  5.3026186566317232e-03  5.4524613758803863e-03  5.1636188747989954e-03  5.4480114964746522e-03  5.2776551166489735e-03  4.9930892266432849e-03  5.0620252528653402e-03  5.4755974519787249e-03  4.8559499571259592e-03  4.7746099717513755e-03  5.7850981995195795e-03  5.1625947348666558e-03  5.1471574691180806e-03  5.6402542579220977e-03  5.6530043519166448e-03  5.4174156935598390e-03  5.0931548488439074e-03  4.9865025758225557e-03  5.5060203036779503e-03  5.0968775063181988e-03  5.9510493088302686e-03  4.3808837468681718e-03  4.4442673638863334e-03  4.9239107697598636e-03  4.8077005553093851e-03  4.4576689983835240e-03  3.9414908870262621e-03  4.7952667680903885e-03  5.6672818701518123e-03  5.9900005224787977e-03  5.2873157262419866e-03  4.1768106343547887e-03  5.3306084880492535e-03  4.6872347671771944e-03  4.9421809169487695e-03  5.6389186288978814e-03  5.1546257247992696e-03  5.7720892184718719e-03  4.5038548270658341e-03  4.7133735907197629e-03  5.8822021159164939e-03  6.2476686808813579e-03  5.0967965876101808e-03  5.6402996913901488e-03  4.5397744243421585e-03  7.2079045714964329e-03  8.0710613741014903e-03  6.8638283532471171e-03  8.3131153672966977e-03  9.0430651421071504e-04  8.4414598220751685e-04  7.8867111095922530e-03  7.9612532116677000e-04  7.9802417428395623e-04  9.1198488018207383e-04  5.7657780337912702e-03  6.0903929986060165e-03  9.6665820509363729e-04  5.4446971383805866e-03  1.2076850783216591e-03  1.1779029839353629e-03  5.0799809196480188e-03  8.3209100283412329e-03  5.8219581843377982e-04  8.5760209536832669e-04  9.6384110507234156e-04  4.5231984663358605e-03  1.4638183038292786e-03  1.2482175982672474e-03  6.9235486989354192e-04  4.4293624601506243e-03  6.0748634309715048e-03  1.4664134389778729e-03  4.3428952342605020e-04  1.1857157125200976e-03  8.4918484909673551e-03  8.6653535721166776e-03  8.7026146117423504e-03  8.6283273022242767e-03  8.5876181263594628e-03  8.4105238293981227e-03  8.3112822616111387e-03  8.0928734532073696e-03  7.9426693920178551e-03  8.1343546959669333e-03  8.1381076514452731e-03  7.7050073578473375e-03  7.8486463446550310e-03  7.6200073049278623e-03  7.3716974261777198e-03  7.4476468134873639e-03  6.9266529118527879e-03  6.8066355313923773e-03  6.9401792684247376e-03  7.4140443511690572e-03  6.8347693506182099e-03  7.2657847443041591e-03  6.6228237601927619e-03  7.0076021404156946e-03  6.3193733677707848e-03  6.6566685155871252e-03  6.3176264902986660e-03  6.1534778474047107e-03  5.9305988887156432e-03  6.2093740523245025e-03  6.1511204494301324e-03  5.6206892196576166e-03  5.4219738528731099e-03  5.4586778958234548e-03  5.6799342667147147e-03  4.8611475104205640e-03  4.6415116905301514e-03  5.1152646919166468e-03  6.3675329320139248e-03  5.7825473736948362e-03  5.0931440160174269e-03  5.1461900924046526e-03  4.4632988144008385e-03  4.3041972408693202e-03  4.6845764831114755e-03  5.7560451981402781e-03  5.0754577215627508e-03  4.9733807297091632e-03  7.2892131069210468e-03  5.6024966439921307e-03  4.8733814643881429e-03  5.1183141689169842e-03  3.8357357105138811e-03  6.7599213635464127e-04  3.4893434414593619e-03  9.2734885995088029e-04  7.0025010271962656e-04  5.0949134956622887e-04  5.7886243966238113e-04  6.2201224113978921e-03  4.6345884820013280e-03  4.2669568781989291e-03  4.4301463461921048e-03  3.9169520333590642e-03  3.7790872481565552e-03  4.0289852594161055e-03  8.6947087658756986e-03  4.1976818554857187e-03  4.3540465598738334e-03  4.6340557867645907e-03  6.1673335670075818e-04  4.1023286985140250e-03  4.2075817849130540e-03  5.3178032555323803e-03  4.5965389177736616e-03  4.1305388158329372e-03  3.0365837876219566e-03  3.5892490258751172e-03  7.7763905869632655e-03  3.3635841438703334e-03  3.3340631128884793e-03  5.6315682576384392e-03  4.9988032424191451e-03  4.1435919729222162e-03  4.3305382285837935e-03  5.1609937672262357e-03  4.4332195558016031e-03  5.2376925620495696e-03  4.4597544601823642e-03  5.2291425326874809e-03  4.3788563545369870e-03  5.1125263050689710e-03  4.2308742193453274e-03  4.9043431506085389e-03  5.7552109790681037e-03  5.4897558882480530e-03  4.6416626641889395e-03  5.1565833650166881e-03  5.9554838342395031e-03  5.5637851292282166e-03  4.7633352062564065e-03  5.0968376669848318e-03  4.3149632973973210e-03  4.5551473361785059e-03  5.2982335605708140e-03  3.8405383327222344e-03  4.6814848000319934e-03  6.4830028840875123e-03  5.3612427336958831e-03  6.0809168396328229e-03  4.6847834708131295e-03  5.2920432800439565e-03  4.5581231783031265e-03  5.0985899736226224e-03  4.0601719393327622e-03  3.9413552407939929e-03  5.9066830156928101e-03  4.3120311878238190e-03  4.8991158744836590e-03  4.2343545465032689e-03  3.7485357725546998e-03  3.5820993781843237e-03  3.7046463186975653e-04  2.6911747961381981e-03  2.2779942609942433e-03  5.9886194403919128e-03  6.2796078864243935e-03  6.3516337651474079e-03  6.0571057576493141e-03  6.6193659347774129e-03  2.5066466994031738e-03  3.4307695256491299e-03  3.6152446755124763e-03  3.0626956575470960e-03  3.4290159148898237e-03  8.6054467027284545e-03  3.3494032735749018e-03  3.6590789934443442e-03  4.1171452793321919e-03  2.7069235856752691e-03  4.6794036613899510e-03  3.3138923012244448e-03  3.9823160973623496e-03  4.4165250644027055e-03  3.7623701219491861e-03  3.7297604582258517e-03  3.4694185137254885e-03  3.2956228463319748e-03  4.1764062836689370e-03  5.6830134224726276e-04  2.8808009604142826e-03  3.5021108326460460e-03  2.7847547563651588e-03  3.3322601035347221e-03  4.7207322595579039e-03  6.2488183625517280e-03  3.2016612055492119e-03  2.8265193583941915e-03  3.0296854923338962e-03  3.1805356817332657e-03  1.9516605667893999e-03  2.2282566159886473e-03  1.6203443657927315e-03  8.1847057923708222e-03  2.2899199646729687e-03  2.4420839107863815e-03  3.5948514470389731e-03  6.3061657370861897e-03  6.6787799905351853e-03  6.9606951865216673e-03  7.2905100230449046e-03  7.5062716562349910e-03  7.7861061913397653e-03  7.5380536204725096e-03  7.9580003752862012e-03  7.6314529499315201e-03  8.0068487769735970e-03  7.6631465370541494e-03  7.2413847530819536e-03  7.2794526022417535e-03  3.5399192376026488e-03  3.9583202980209503e-03  3.0630832015353508e-03  2.9859519823219099e-04  3.4178653840558526e-04  6.5420085204263125e-03  6.5972048609296103e-03  4.7526385648809294e-03  4.2785662103956845e-03  3.4927757557862023e-03  3.8067702013954898e-03  4.5474734821165435e-03  4.0645333541566705e-03  4.8742058364309154e-03  4.2784988392179212e-03  4.9435468800932397e-03  4.3806614912595488e-03  3.7173918515322857e-03  3.8068028845506603e-03  4.4224945084902602e-03  3.8251979241654163e-03  4.3711099654450717e-03  3.7523010833081156e-03  4.2249205489111848e-03  3.5808595067025922e-03  3.1209564035475754e-03  3.9839177957314694e-03  3.3140213525370207e-03  3.1167004021300472e-03  3.6457222623372146e-03  2.9579215753504544e-03  2.6796350005066222e-03  5.0783502765487376e-03  4.6380730169270799e-03  3.2491638723142280e-03  6.9586324898474007e-03  2.3059472611079703e-03  2.5224982427078553e-03  2.6519694962568599e-03  2.5880639083033516e-03  3.2341107687517473e-03  3.9989821080236281e-03  2.4880951700574127e-03  4.3405128889040072e-03  3.7300598368428133e-03  2.7405032724612147e-03  6.8259689158422041e-03  5.4726395174772083e-03  5.5261809160183153e-03  7.9111673793094296e-03  8.1963203046016633e-03  2.6645558604001468e-03  1.8166201121145634e-03  6.7760909887340437e-03  2.6885211388512283e-04  3.5258694987326633e-03  2.9520987924229435e-03  2.6705644367943739e-03  2.1542399755048298e-03  3.9341919762622855e-03  6.0581089273782380e-03  2.9636033055325016e-03  2.3548933119760412e-03  2.5164497140626120e-03  1.7934417479150114e-03  1.8762231553521851e-03  1.3275871290486746e-03  1.2966642902414215e-03  1.9241504963598876e-03  1.5211151699465050e-03  1.6935489971800820e-03  2.4553863038096761e-03  2.3697213262369051e-03  3.0933595977393029e-03  2.1611395289553611e-03  2.8222311313186718e-03  1.9156851641006895e-03  2.5270564985299289e-03  5.1402796563993951e-03  5.2678435058242752e-03  4.8029643587595141e-03  5.6808546637615040e-03  5.7550893328712771e-03  6.1967301598469795e-03  6.2378682870339857e-03  6.6570580233640073e-03  6.6888749398468532e-03  7.0973721705639495e-03  7.0786622243902272e-03  7.4973336823298611e-03  7.4540914253412105e-03  7.8552364732297729e-03  7.7573408754798229e-03  8.1837337230982639e-03  7.9846685651400063e-03  8.3436254101230487e-03  8.0982340905905066e-03  8.4340572853907926e-03  7.5271591822495812e-03  8.5596455794543311e-03  8.6395973946689162e-03  8.4489086602898989e-03  8.6602821840172303e-03  3.9239901439816023e-03  2.7724138752199990e-03  4.8245734325685725e-03  2.0548143398266207e-03  7.7333704433124248e-03  6.1061364208955448e-03  2.8845983479414104e-03  2.9798500116281338e-03  2.1103986571545750e-03  3.9836915287204443e-03  6.2662554399110434e-03  1.8710860766396589e-03  2.0295430753709816e-03  5.7290078415054273e-03  5.9191037855814890e-03  3.8077932730916598e-03  5.0976016671192515e-03  6.4518991062487317e-03  1.2479271184664006e-03  2.5824310847453761e-03  1.5506971820565749e-03  1.0969810390946708e-03  8.4163758414425999e-03  1.2806674184632234e-03  6.7774985491207340e-03  1.7989744570535899e-03  1.9684303160047590e-03  2.5916648547426187e-03  2.0273125481355776e-03  1.4423494659551279e-03  8.1541330499011258e-03  2.4897224651665322e-03  7.5553697823777200e-03  7.0065776936319348e-03  8.4504898309079937e-03  5.7545370939064587e-03  2.1052333916603012e-03  7.9681710313699191e-04  8.4087343072972442e-03  1.7475958755603031e-03  2.5820956389739371e-03  1.7423242542512240e-03  8.4329750833201864e-03  8.3071304271262070e-03  8.4674364088843154e-03  5.8783797001811244e-03  5.5320273466392877e-03  5.9929700311619543e-03  1.8105021470415145e-03  2.2969556115681349e-03  1.3646246431888792e-03  1.6579472637064186e-03  5.5834448210946089e-03  1.6606989167821194e-03  2.1987755377282699e-03  1.3792758043708773e-03  1.8372896745357024e-03  2.5918881020961220e-03  2.1597722337999624e-03  1.4684970931369344e-03  1.6749958045752125e-03  2.3418353457992621e-03  1.0834045135769601e-03  1.7511783292093635e-03  2.3691721709970625e-03  1.6460433645093828e-03  2.2205250800479887e-03  3.0084003128398869e-03  8.3092421631449261e-03  4.7960132726736293e-03  4.8337500131469292e-03  5.0925221158380496e-03  4.5018745346936907e-03  5.5924794039242057e-03  4.9503093377751134e-03  5.4789071860831540e-03  5.2934167246402606e-03  5.0250700579383828e-03  5.4632205167004771e-03  5.7433021809959765e-03  6.9307866018313976e-03  2.5816158541274131e-03  2.0724589460373202e-03  2.5306559775536328e-03  2.2025599959301805e-03  1.5523359888930384e-03  5.9398577208689008e-03  7.4967802530085184e-03  8.5817771749128221e-04  1.9442780482196516e-03  4.4209158075028138e-03  1.0871392213743598e-03  1.7347723691557165e-03  1.4572586328216090e-03  7.8900554615855627e-04  1.2035676521077131e-03  1.8177850785967243e-03  1.4073458034874235e-03  9.0514524164114220e-04  4.4454146994438046e-04  2.0853269922040960e-03  6.4666240809281381e-03  6.9533134402848130e-03  6.8762503892081592e-03  5.8585507102021234e-03  1.4322664782375448e-03  5.3386986284274423e-03  3.7021737735895553e-03  3.7528282393983980e-03  6.1507365053419484e-03  6.2879408391983416e-03  6.6413613574094390e-03  5.9538506722836785e-03  6.6605441423872574e-03  6.6318105236252969e-03  7.2485629484623504e-03  7.2059779974262463e-03  7.1746726508810001e-03  6.5212075221182490e-03  7.0489373878177275e-03  7.7535163389252388e-03  6.3562945996090796e-03  8.5765975472173930e-03  7.5872071635244070e-03  8.0952306915052681e-03  6.3246902705045365e-04  1.6988408040414197e-03  7.4207017865699906e-03  4.9652246919147103e-03  5.7041499627584749e-03  7.6700400793909486e-04  2.8720525308588915e-03  9.8818435807115088e-04  1.0410418707157486e-03  3.0047495162391193e-03  2.8057060905355728e-03  1.2807082949791589e-03  1.2138901231295324e-03  1.8066585412361174e-03  5.0034335415298356e-03  6.0254838437100418e-03  5.9276147983000852e-03  5.8954079312576015e-03  5.9696857712559798e-03  7.4413079453739487e-03  7.3703846373559785e-04  1.1453858279038684e-03  1.9146405924365085e-03  5.7071458563560254e-03  1.3218722606999455e-03  2.2733414409902416e-03  2.1488678600076641e-03  9.0092641118599706e-04  7.8487960388785583e-03  2.0573141118969958e-03  5.6430219009126923e-03  7.9842851878073606e-03  8.5750298958496768e-04  8.9419462253160868e-04  8.4087923587190740e-04  3.0989402528698402e-03  7.1926685311223979e-03  5.1971652576389361e-04  4.9113156096756488e-03  3.0324425662354567e-03  1.3863121025299221e-03  4.1346261189631767e-03  3.8451892363056269e-04  3.5316077792755247e-03  2.0347201584916298e-03  5.0748969289491751e-04  4.9596666213923897e-04  1.1708571051315844e-03  8.2442722026322343e-04  5.3627938533129548e-04  5.9479211123094249e-03  4.6517855974296468e-03  3.7468293872526173e-03  8.0441004934174651e-03  4.5523337826042900e-03  3.5397140114094182e-04  8.3160194102327000e-04  1.2919220165433171e-03  5.6151426975854842e-03  4.0107517487562496e-03  6.9863877973403779e-03  5.8077797823738344e-04  1.1036625998502214e-03  1.1159453014145313e-03  1.8060133175903225e-03  2.7914986643334115e-03  3.4770788112539648e-03  8.0126791839189328e-04  5.8812589465839496e-03  3.2790647794171028e-03  8.3625149237932083e-03  7.8319647025219714e-03  5.9305990625211193e-03  2.7350881695121618e-03  4.5374663516152313e-03  1.8100205417805693e-03  7.2631332725699290e-03  3.2114219458726514e-03  3.8600641671261583e-03  7.7443875508382276e-03  1.8162376865445639e-03  2.4317853409323788e-03  3.6013577283212452e-03  3.3199284338283437e-03  5.5508030679293323e-03  4.0348703864921875e-03  6.5487305992750376e-03  4.0713592889270855e-03  5.8991177668265707e-03  1.8824311573927086e-03  2.0212892074661371e-03  7.0971333221644325e-03  5.6369310578381314e-03  4.9190908740214369e-03  8.6879084145437772e-03  8.7256858232993145e-03  8.6259797945340815e-03  8.6748347104729877e-04  1.0921182114263367e-03  1.8103185692378016e-03  4.4934730219429080e-03  6.3607857273822077e-04  3.0650932989785562e-04  1.4196215391131660e-03  4.2825959888387566e-04  2.2306120526683189e-04  3.5331522957560272e-03  7.4760222655923653e-04  7.5988627116013877e-03  1.3118531579817169e-03  3.4235730349396493e-03  7.8937272935184818e-03  8.4772043965915568e-03  6.2741974231274493e-03  6.5452992408601817e-03  7