<?xml version="1.0"?>
<VTKFile type="UnstructuredGrid"  version="0.1"  >
<UnstructuredGrid>
<Piece  NumberOfPoints="1259" NumberOfCells="2420">
<Points>
<DataArray  type="Float64"  NumberOfComponents="3"  format="ascii">0 0 0  0 1 0  1 1 0  1 0 0  1.1 -0.1 0  -0.1 -0.1 0  1.1 1.1 0  -0.1 1.1 0  0.4972969323049366 0.5006159231682293 0  0.606534125112807 0.7258092724566371 0  0 0.9499999999997918 0  0 0.8999999999995836 0  0 0.8499999999996529 0  0 0.7999999999999998 0  0 0.7500000000003466 0  0 0.7000000000006934 0  0 0.6500000000010401 0  0 0.6000000000013869 0  0 0.5500000000017335 0  0 0.5000000000020587 0  0 0.4500000000018723 0  0 0.4000000000016644 0  0 0.3500000000014564 0  0 0.3000000000012483 0  0 0.2500000000010403 0  0 0.2000000000008322 0  0 0.1500000000006241 0  0 0.100000000000416 0  0 0.05000000000020799 0  0.04999999999989965 0 0  0.09999999999981467 0 0  0.1499999999997036 0 0  0.1999999999995579 0 0  0.2499999999994121 0 0  0.2999999999992664 0 0  0.3499999999991206 0 0  0.3999999999989749 0 0  0.4499999999988292 0 0  0.4999999999986943 0 0  0.5499999999988151 0 0  0.5999999999989468 0 0  0.6499999999990784 0 0  0.69999999999921 0 0  0.7499999999993417 0 0  0.7999999999994734 0 0  0.8499999999996051 0 0  0.8999999999997368 0 0  0.9499999999998684 0 0  1 0.04999999999989965 0  1 0.09999999999981467 0  1 0.1499999999997036 0  1 0.1999999999995579 0  1 0.2499999999994121 0  1 0.2999999999992664 0  1 0.3499999999991206 0  1 0.3999999999989749 0  1 0.4499999999988292 0  1 0.4999999999986943 0  1 0.5499999999988151 0  1 0.5999999999989468 0  1 0.6499999999990784 0  1 0.69999999999921 0  1 0.7499999999993417 0  1 0.7999999999994734 0  1 0.8499999999996051 0  1 0.8999999999997368 0  1 0.9499999999998684 0  0.9499999999997918 1 0  0.8999999999995836 1 0  0.8499999999996529 1 0  0.7999999999999998 1 0  0.7500000000003466 1 0  0.7000000000006934 1 0  0.6500000000010401 1 0  0.6000000000013869 1 0  0.5500000000017335 1 0  0.5000000000020587 1 0  0.4500000000018723 1 0  0.4000000000016644 1 0  0.3500000000014564 1 0  0.3000000000012483 1 0  0.2500000000010403 1 0  0.2000000000008322 1 0  0.1500000000006241 1 0  0.100000000000416 1 0  0.05000000000020799 1 0  -0.1 1.05000000000004 0  -0.1 1.000000000000079 0  -0.1 0.9500000000001624 0  -0.1 0.9000000000003032 0  -0.1 0.850000000000444 0  -0.1 0.8000000000005848 0  -0.1 0.7500000000007256 0  -0.1 0.7000000000008665 0  -0.1 0.6500000000010508 0  -0.1 0.6000000000012352 0  -0.1 0.5500000000014196 0  -0.1 0.500000000001539 0  -0.1 0.4500000000014195 0  -0.1 0.4000000000013 0  -0.1 0.3500000000011588 0  -0.1 0.3000000000010178 0  -0.1 0.2500000000008986 0  -0.1 0.2000000000007579 0  -0.1 0.1500000000006174 0  -0.1 0.1000000000005272 0  -0.1 0.05000000000040083 0  -0.1 2.671196597248127e-13 0  -0.1 -0.0499999999998666 0  -0.0500000000000906 -0.1 0  -1.730560139634463e-13 -0.1 0  0.04999999999975802 -0.1 0  0.09999999999961506 -0.1 0  0.1499999999994613 -0.1 0  0.199999999999302 -0.1 0  0.2499999999991446 -0.1 0  0.2999999999990088 -0.1 0  0.3499999999988296 -0.1 0  0.3999999999986936 -0.1 0  0.4499999999985143 -0.1 0  0.4999999999984002 -0.1 0  0.5499999999985247 -0.1 0  0.5999999999986493 -0.1 0  0.6499999999987955 -0.1 0  0.6999999999989417 -0.1 0  0.7499999999990659 -0.1 0  0.7999999999992116 -0.1 0  0.8499999999993573 -0.1 0  0.8999999999994526 -0.1 0  0.949999999999584 -0.1 0  0.9999999999997226 -0.1 0  1.049999999999861 -0.1 0  1.1 -0.0500000000000906 0  1.1 -1.730560139634463e-13 0  1.1 0.04999999999975802 0  1.1 0.09999999999961506 0  1.1 0.1499999999994613 0  1.1 0.199999999999302 0  1.1 0.2499999999991446 0  1.1 0.2999999999990088 0  1.1 0.3499999999988296 0  1.1 0.3999999999986936 0  1.1 0.4499999999985143 0  1.1 0.4999999999984002 0  1.1 0.5499999999985247 0  1.1 0.5999999999986493 0  1.1 0.6499999999987955 0  1.1 0.6999999999989417 0  1.1 0.7499999999990659 0  1.1 0.7999999999992116 0  1.1 0.8499999999993573 0  1.1 0.8999999999994526 0  1.1 0.949999999999584 0  1.1 0.9999999999997226 0  1.1 1.049999999999861 0  1.05000000000004 1.1 0  1.000000000000079 1.1 0  0.9500000000001624 1.1 0  0.9000000000003032 1.1 0  0.850000000000444 1.1 0  0.8000000000005848 1.1 0  0.7500000000007256 1.1 0  0.7000000000008665 1.1 0  0.6500000000010508 1.1 0  0.6000000000012352 1.1 0  0.5500000000014196 1.1 0  0.500000000001539 1.1 0  0.4500000000014195 1.1 0  0.4000000000013 1.1 0  0.3500000000011588 1.1 0  0.3000000000010178 1.1 0  0.2500000000008986 1.1 0  0.2000000000007579 1.1 0  0.1500000000006174 1.1 0  0.1000000000005272 1.1 0  0.05000000000040083 1.1 0  2.671196597248127e-13 1.1 0  -0.0499999999998666 1.1 0  0.6278695099199181 0.7147535870769135 0  0.6477218720924521 0.701616339117941 0  0.666029296950821 0.686618575198273 0  0.6826860726453025 0.6700862272715247 0  0.6976544507808355 0.6521040438335267 0  0.7109729490938818 0.6327151667663679 0  0.7221650904618994 0.6119434470123591 0  0.7317178301121514 0.5899203203075304 0  0.7388981650880998 0.5666812242548688 0  0.7437045950954422 0.5424982132935758 0  0.7463273905700916 0.5176620252043941 0  0.7464449482900698 0.4924661082273749 0  0.7441804116892587 0.4671668753540237 0  0.7394594273035405 0.4421660657450359 0  0.7325236840679161 0.4176329668894642 0  0.7234967377979545 0.3940387278048176 0  0.7123236392529192 0.3716373322293915 0  0.699260445163134 0.3506742257405542 0  0.6843455328566055 0.3314282405700281 0  0.6678948572177282 0.3139862546956927 0  0.6499967013100655 0.2985317262130251 0  0.6307075877988118 0.2852166946322377 0  0.6105566381788025 0.273759395159254 0  0.5892498001346891 0.2645140380052164 0  0.5669545712875071 0.2572370899335117 0  0.5438525301075182 0.2520649009192428 0  0.5200433563804154 0.2494111745413899 0  0.4958136188265164 0.249147429687213 0  0.4712717173419492 0.2514709809328545 0  0.446770173761352 0.2564824824574292 0  0.4225387752408011 0.264056997461018 0  0.3988702003622845 0.2741665383158542 0  0.3760609954471328 0.2866450879614553 0  0.3544500982679966 0.301234650378809 0  0.3344222315599192 0.3179288629691234 0  0.3161749952998517 0.3360397449301076 0  0.3000877433324822 0.3554244160341372 0  0.2861135591707115 0.3756083905572918 0  0.2743851294149913 0.3962603818123608 0  0.2649673793082903 0.4171763582434524 0  0.2578747656988936 0.4383332263810426 0  0.2532464548963185 0.4596955203389931 0  0.2511318435765725 0.4810087600449092 0  0.2506743078030313 0.5016146431630168 0  0.251758261295474 0.5206185931142041 0  0.2540185548197809 0.5388975559916626 0  0.2573628160924503 0.5587821681692343 0  0.2630718670792012 0.5789873557946089 0  0.2707403975146247 0.5991192009683308 0  0.2806156711470053 0.6187862199338555 0  0.2928222357623706 0.6378148784251896 0  0.307294854503637 0.6562366211919014 0  0.3238812881106807 0.673837334815887 0  0.3426170362144153 0.6903592274633295 0  0.3633431235892158 0.7054510693027101 0  0.3857100550391968 0.7187031011085296 0  0.4094000490175598 0.7298201397893416 0  0.4341834435265375 0.7385479511941097 0  0.4596656327473025 0.74456549487365 0  0.4852057601508853 0.7478654296144678 0  0.5107183003003574 0.7484783639492821 0  0.5358268942441419 0.7464467204251372 0  0.560282533477197 0.7419824151231257 0  0.5838919318023849 0.7351642833555144 0  0.3041439334045098 0.6089291188081187 0  0.6288569141902565 0.3066698072254822 0  0.6608642666338264 0.6672561572105544 0  0.2895300128617069 0.4203213214594658 0  0.6863336351327823 0.3707016026175999 0  0.5107115196330403 0.2700991593969699 0  0.7108239534870856 0.5748473735937191 0  0.3472623470407558 0.6618062554135795 0  0.4063308174512343 0.703337998291394 0  0.4765238488896532 0.7199223661591958 0  0.5888441249996216 0.7099435311939228 0  0.441420498893587 0.2814225013013428 0  0.7206735695202986 0.5031444027226616 0  0.7148227780946557 0.4344315727591338 0  0.2668468768942704 0.4782689850480352 0  0.3256272930025514 0.3624674243488114 0  0.378342638437811 0.3140139336160662 0  0.2753662611950357 0.561456769292308 0  0.5741379271964955 0.2791918049683871 0  0.5220319814201635 0.7246695894091729 0  0.6980841684589217 0.6148848772329177 0  0.6615532798244239 0.3352363793650437 0  0.6288723948290386 0.6873416998335022 0  0.2664875987666544 0.5134581235807261 0  0.2805086883937656 0.4402431788634262 0  0.3027990622115568 0.4451663257913842 0  0.3132071235873107 0.425614350216418 0  0.3247688750799805 0.4522906807020126 0  0.3357705759788395 0.432560328546068 0  0.3489584732193824 0.4612878019965243 0  0.3554848228675735 0.433288122090737 0  0.3352011942560802 0.4834252764515043 0  0.3606553130307862 0.4942210743647311 0  0.3433305826529273 0.5181662094327347 0  0.3701232599725198 0.5314640080813056 0  0.3178600046357219 0.5026225570023074 0  0.3244338310790596 0.5382926336821785 0  0.3894667196983982 0.5033991192346318 0  0.3987541579919525 0.5451877777098184 0  0.374397750950177 0.5785528903503361 0  0.4037161549662228 0.5950203079991296 0  0.3040050283909055 0.5254457901118256 0  0.3064330181488829 0.554865174992073 0  0.3236251371178895 0.5689705885507077 0  0.4322514801288384 0.5605632122791782 0  0.4350919997319063 0.6109852917519553 0  0.4109376111894281 0.6263495110884199 0  0.4406171736420456 0.6483581703905716 0  0.4671818036124423 0.6262614381908965 0  0.4754800365482746 0.6551785981249784 0  0.5008690189413645 0.6402588360117832 0  0.4475618943111746 0.6793793888878427 0  0.2930344464852291 0.4642437283548489 0  0.3228103325798614 0.4066257894411298 0  0.4997053041911697 0.5921570781664112 0  0.5351717136651165 0.6082977646285613 0  0.5325337115327297 0.6543567364834111 0  0.5690080766203429 0.6320817846430496 0  0.5697317858077041 0.583594370596961 0  0.6026341327051609 0.5990903182605272 0  0.6042243851373459 0.5601071163091526 0  0.6350929492273661 0.5754615339264263 0  0.6432112721516906 0.5382033604609171 0  0.6065345958420006 0.521378493653419 0  0.6469366483378229 0.5005615258728595 0  0.6077239302708816 0.4824727238283715 0  0.6463011873844713 0.4586474265379649 0  0.608232636563
[...]
<PointData  Scalars="v"> 
<DataArray  type="Float64"  Name="v"  format="ascii">0.0000000000000000e+00  0.0000000000000000e+00  0.0000000000000000e+00  0.0000000000000000e+00  0.0000000000000000e+00  0.0000000000000000e+00  0.0000000000000000e+00  0.0000000000000000e+00  6.2435109935970396e-05  6.0839486908631346e-05  0.0000000000000000e+00  0.0000000000000000e+00  0.0000000000000000e+00  0.0000000000000000e+00  0.0000000000000000e+00  0.0000000000000000e+00  0.0000000000000000e+00  0.0000000000000000e+00  0.0000000000000000e+00  0.0000000000000000e+00  0.0000000000000000e+00  0.0000000000000000e+00  0.0000000000000000e+00  0.0000000000000000e+00  0.0000000000000000e+00  0.0000000000000000e+00  0.0000000000000000e+00  0.0000000000000000e+00  0.0000000000000000e+00  0.0000000000000000e+00  0.0000000000000000e+00  0.0000000000000000e+00  0.0000000000000000e+00  0.0000000000000000e+00  0.0000000000000000e+00  0.0000000000000000e+00  0.0000000000000000e+00  0.0000000000000000e+00  0.0000000000000000e+00  0.0000000000000000e+00  0.0000000000000000e+00  0.0000000000000000e+00  0.0000000000000000e+00  0.0000000000000000e+00  0.0000000000000000e+00  0.0000000000000000e+00  0.0000000000000000e+00  0.0000000000000000e+00  0.0000000000000000e+00  0.0000000000000000e+00  0.0000000000000000e+00  0.0000000000000000e+00  0.0000000000000000e+00  0.0000000000000000e+00  0.0000000000000000e+00  0.0000000000000000e+00  0.0000000000000000e+00  0.0000000000000000e+00  0.0000000000000000e+00  0.0000000000000000e+00  0.0000000000000000e+00  0.0000000000000000e+00  0.0000000000000000e+00  0.0000000000000000e+00  0.0000000000000000e+00  0.0000000000000000e+00  0.0000000000000000e+00  0.0000000000000000e+00  0.0000000000000000e+00  0.0000000000000000e+00  0.0000000000000000e+00  0.0000000000000000e+00  0.0000000000000000e+00  0.0000000000000000e+00  0.0000000000000000e+00  0.0000000000000000e+00  0.0000000000000000e+00  0.0000000000000000e+00  0.0000000000000000e+00  0.0000000000000000e+00  0.0000000000000000e+00  0.0000000000000000e+00  0.0000000000000000e+00  0.0000000000000000e+00  0.0000000000000000e+00  0.0000000000000000e+00  0.0000000000000000e+00  0.0000000000000000e+00  0.0000000000000000e+00  0.0000000000000000e+00  0.0000000000000000e+00  0.0000000000000000e+00  0.0000000000000000e+00  0.0000000000000000e+00  0.0000000000000000e+00  0.0000000000000000e+00  0.0000000000000000e+00  0.0000000000000000e+00  0.0000000000000000e+00  0.0000000000000000e+00  0.0000000000000000e+00  0.0000000000000000e+00  0.0000000000000000e+00  0.0000000000000000e+00  0.0000000000000000e+00  0.0000000000000000e+00  0.0000000000000000e+00  0.0000000000000000e+00  0.0000000000000000e+00  0.0000000000000000e+00  0.0000000000000000e+00  0.0000000000000000e+00  0.0000000000000000e+00  0.0000000000000000e+00  0.0000000000000000e+00  0.0000000000000000e+00  0.0000000000000000e+00  0.0000000000000000e+00  0.0000000000000000e+00  0.0000000000000000e+00  0.0000000000000000e+00  0.0000000000000000e+00  0.0000000000000000e+00  0.0000000000000000e+00  0.0000000000000000e+00  0.0000000000000000e+00  0.0000000000000000e+00  0.0000000000000000e+00  0.0000000000000000e+00  0.0000000000000000e+00  0.0000000000000000e+00  0.0000000000000000e+00  0.0000000000000000e+00  0.0000000000000000e+00  0.0000000000000000e+00  0.0000000000000000e+00  0.0000000000000000e+00  0.0000000000000000e+00  0.0000000000000000e+00  0.0000000000000000e+00  0.0000000000000000e+00  0.0000000000000000e+00  0.0000000000000000e+00  0.0000000000000000e+00  0.0000000000000000e+00  0.0000000000000000e+00  0.0000000000000000e+00  0.0000000000000000e+00  0.0000000000000000e+00  0.0000000000000000e+00  0.0000000000000000e+00  0.0000000000000000e+00  0.0000000000000000e+00  0.0000000000000000e+00  0.0000000000000000e+00  0.0000000000000000e+00  0.0000000000000000e+00  0.0000000000000000e+00  0.0000000000000000e+00  0.0000000000000000e+00  0.0000000000000000e+00  0.0000000000000000e+00  0.0000000000000000e+00  0.0000000000000000e+00  0.0000000000000000e+00  0.0000000000000000e+00  0.0000000000000000e+00  0.0000000000000000e+00  0.0000000000000000e+00  0.0000000000000000e+00  0.0000000000000000e+00  0.0000000000000000e+00  0.0000000000000000e+00  0.0000000000000000e+00  0.0000000000000000e+00  0.0000000000000000e+00  0.0000000000000000e+00  0.0000000000000000e+00  6.0462322493121500e-05  6.0546967949602360e-05  6.1407488294744418e-05  6.1183257836955698e-05  6.1157086200940236e-05  6.0929767444964754e-05  6.1110564070182655e-05  6.1098762347232125e-05  6.0734633468856592e-05  6.0827890806333773e-05  6.0616069576116810e-05  6.0556528852765672e-05  6.0447118773237616e-05  5.9790272137275857e-05  5.9123173435808998e-05  5.8301314038674957e-05  5.7219861533392718e-05  5.6240305946196495e-05  5.5084632008767799e-05  5.4029113416172979e-05  5.3055560334228574e-05  5.2207548170691778e-05  5.1560517907759506e-05  5.1192283600146588e-05  5.1062475763712999e-05  5.1126674768702778e-05  5.1676054050432707e-05  5.2526084609044568e-05  5.3625007426308248e-05  5.4997694306495288e-05  5.6570656449379273e-05  5.8123098804620246e-05  5.9416696138630337e-05  6.0482338464108928e-05  6.1760522780531421e-05  6.1819854185001647e-05  6.1889466018466902e-05  6.1778506687224774e-05  6.1465139552233954e-05  6.1158356912871992e-05  6.1072199172908026e-05  6.1152001324654497e-05  6.1382749943159469e-05  6.1730944983913542e-05  6.2283310881957791e-05  6.1787844035352430e-05  6.1862393139292671e-05  6.2200415639305208e-05  6.2728771961729932e-05  6.3034451841908961e-05  6.3362608080419426e-05  6.3961426417934376e-05  6.4534177044802988e-05  6.4745147541507092e-05  6.4797303523734978e-05  6.4613951222202540e-05  6.4220035942153447e-05  6.3613000632914825e-05  6.2891133116610269e-05  6.2254485324321235e-05  6.1570128086620136e-05  6.1049656717100315e-05  6.0650397161151132e-05  6.0356618075803045e-05  5.5658211583331958e-05  4.7641252703153501e-05  5.4809664080323612e-05  5.4433549454845018e-05  5.0507842051393690e-05  4.7199906117308593e-05  5.3881737974058932e-05  5.6856597297708221e-05  5.7035698879486413e-05  5.5254749358035276e-05  5.4055053881402673e-05  4.9955284929877434e-05  5.3459803654694934e-05  5.2881293455903096e-05  5.5577180973356601e-05  5.4579890493141560e-05  5.2996333567906876e-05  5.6032421663861096e-05  4.6563701517176463e-05  5.4733286979222144e-05  5.4615245174247594e-05  4.9034795229153136e-05  5.3792040241630153e-05  5.5971290385695941e-05  5.4459897283620568e-05  5.4774733405672396e-05  5.4991421207388483e-05  5.6695552384995267e-05  5.6905870298393693e-05  5.8724269615481134e-05  5.8290250518056806e-05  5.8198399157420340e-05  5.9808406852196451e-05  5.9043245212591277e-05  6.0464209745316746e-05  5.6903650543146120e-05  5.7477216703335003e-05  6.0999613403640825e-05  6.1377319490412457e-05  6.0317065569138950e-05  6.1132768546295449e-05  5.5772045287645040e-05  5.5825031396915932e-05  5.6993533467995677e-05  6.2205388999633413e-05  6.1243988872847454e-05  6.0496306908149188e-05  5.9976021333665659e-05  6.1008366206701474e-05  5.9703936950045497e-05  6.0179089805978911e-05  5.7780917477731435e-05  5.4512344048964776e-05  5.5024100453066167e-05  6.1684866305423787e-05  6.0721463322250117e-05  5.8823792610330209e-05  5.8909504369979255e-05  6.0367329351299915e-05  5.8870533696911443e-05  5.9692470874383840e-05  5.8089941675311105e-05  5.8191919130946726e-05  5.9637144756531176e-05  5.7877634092118149e-05  5.8915930356007824e-05  5.6823403708059693e-05  5.7483035630226862e-05  5.5849441417350345e-05  5.5063286082434575e-05  5.7601057447333314e-05  5.5213597582371209e-05  5.7194033302792586e-05  5.4279776258241531e-05  5.6231100860242356e-05  5.2121631029622657e-05  5.3426377082527881e-05  5.4774230772999872e-05  5.7274529557125792e-05  5.6603776108376994e-05  5.6741540310516812e-05  5.8325907883239061e-05  5.7633401373906762e-05  5.8905715133533974e-05  5.2973143545836692e-05  5.6325239389458181e-05  5.1640979109265561e-05  5.0396739021138044e-05  5.5313716773323092e-05  5.4706785606950960e-05  5.2214914467807967e-05  5.2585705231865966e-05  5.6445052882212585e-05  5.6070274600521267e-05  5.8309124825203871e-05  5.7399864186841408e-05  5.5510781947794156e-05  5.4249903771127105e-05  5.3362782868223652e-05  6.0617743460528546e-05  4.9014125435520676e-05  5.0622138962166654e-05  4.8499420350041949e-05  4.7322707631308732e-05  4.9364819957334408e-05  4.7081459720876634e-05  6.0530440295729162e-05  5.6179593895066309e-05  5.4510196352535222e-05  5.7244605291993308e-05  5.5171461591492369e-05  5.5003849734810918e-05  5.4518107181587250e-05  5.5086490783805889e-05  5.4699727814011708e-05  5.5905561446375686e-05  5.9307991884727266e-05  5.7709260993282588e-05  5.6727573277550201e-05  5.4589910422261887e-05  5.2682940939040044e-05  5.0346455207326520e-05  5.5572356033650338e-05  5.9584958855235985e-05  5.8384974321363893e-05  5.8302925602377945e-05  5.7304516926979485e-05  5.4340278614891857e-05  6.1720257799755825e-05  5.9078631268923974e-05  5.4118416737363448e-05  5.5279813515963704e-05  4.9117825176049124e-05  5.4935269206920612e-05  5.5517282249893844e-05  5.4553232056543345e-05  5.4445982592241077e-05  5.4918298074373572e-05  5.6913361543700260e-05  6.0768023436906771e-05  6.1790345329265390e-05  5.4016965824762092e-05  5.6406503131246967e-05  5.6323815328830420e-05  5.2123988260257221e-05  5.6588000681003906e-05  5.4718967324355247e-05  5.1045890307015675e-05  5.7287068072769591e-05  5.6793866363951415e-05  5.8634504208210023e-05  5.7511504538961275e-05  5.6238694888963881e-05  5.3762683284628095e-05  5.4201222553379424e-05  5.2247491488612947e-05  5.5248109552547491e-05  5.1462699550933012e-05  5.2520201821856955e-05  5.4525924962228518e-05  5.4087975484437942e-05  5.5337338568996036e-05  4.7983507967660859e-05  5.4277566622464581e-05  5.4433170719561797e-05  5.4858465786605557e-05  4.9823053616189620e-05  5.0170293936613048e-05  4.6654406438808503e-05  5.6625901870674943e-05  5.7543331238321786e-05  5.1918045728043456e-05  5.4462422512872096e-05  5.6970500106585394e-05  6.2282030273874117e-05  5.6169224809046931e-05  4.8189425068518282e-05  4.8025978060072455e-05  4.7108248806807409e-05  5.9430655006389505e-05  5.5079621522988050e-05  5.4069420434069998e-05  5.3848372690392548e-05  5.3466792572746920e-05  5.3907832110429996e-05  5.3863154824541990e-05  5.3732545723201701e-05  4.6329130889386436e-05  5.4770993782700750e-05  5.9120391186039700e-05  6.1157782391058676e-05  4.6780915223817593e-05  5.6384478346337564e-05  5.5003736435698598e-05  5.9785637742092375e-05  5.4065731032300901e-05  5.0967554873659222e-05  4.6750152055012182e-05  5.0927010331270123e-05  5.6708931202415233e-05  5.4475717637797660e-05  6.2448772822066971e-05  5.4463853115481758e-05  5.1427863117266787e-05  6.0749279642894999e-05  6.0943161389767594e-05  5.5344138163779975e-05  5.0226267748698718e-05  5.7074596006238086e-05  5.4857914433135394e-05  4.8068881886502099e-05  4.9938582833064236e-05  4.8673246632094514e-05  5.2787075719512842e-05  4.8897511314366528e-05  5.1702510543056677e-05  5.3983387423566543e-05  5.4076962214404144e-05  5.5403385807550117e-05  5.7160365480323457e-05  5.6413965996749792e-05  5.4439648829617521e-05  5.7209693693116899e-05  4.7309996649386688e-05  5.3945941531754403e-05  5.4173197626841627e-05  5.9861088494362088e-05  5.4254812317565785e-05  5.8772012719102897e-05  6.1887878210641292e-05  6.2662013333860089e-05  5.6796616039879614e-05  5.6459106773639249e-05  6.0005198236737205e-05  5.9821945060193631e-05  4.9210524800499761e-05  5.5147889380134263e-05  5.5394059014837300e-05  5.2933255607374713e-05  5.6546800039087269e-05  5.9491789889147929e-05  5.7233479845234685e-05  4.7384078220077075e-05  5.6020696499529420e-05  5.7588780417997781e-05  5.7060089176707115e-05  5.7988795930841717e-05  5.4196528077805281e-05  5.2309555002230388e-05  5.8488905383148647e-05  6.1967615231834483e-05  5.3671536037590734e-05  6.1716481956123248e-05  5.7742101265570287e-05  4.6666199268460724e-05  5.6052387872714407e-05  5.2642459226853845e-05  5.5676384484559635e-05  5.5118465264501456e-05  5.4027433382117726e-05  5.7240311659669190e-05  5.6412588464876547e-05  5.5948403411443655e-05  5.6204767123184426e-05  5.9046446925945359e-05  6.8502683556630355e-05  6.6264537426527625e-05  7.0592756088446969e-05  5.8687779446941583e-05  6.7053886264338891e-05  7.1327865388451400e-05  6.6662568318171894e-05  5.6676051895117331e-05  6.7705144559372952e-05  6.2405060316921159e-05  7.0056148391739592e-05  6.1184647071725400e-05  6.7388891993547668e-05  9.3596901428901456e-06  6.7511863880202885e-05  1.0546248835693621e-05  6.8667196095559060e-05  9.3186746808379560e-06  6.7706420943461625e-05  1.1431859528512649e-05  1.1711487261869967e-05  6.6398709531250685e-05  6.4912463765897651e-05  1.3141119017436323e-05  5.6766950100977180e-05  5.5385923373405561e-05  6.6735316005616969e-05  1.2866200485326611e-05  1.0453192986422378e-05  6.6943137718288595e-05  1.3027958592092315e-05  1.3973806940181177e-05  1.4266368222581990e-05  6.8040928121922774e-05  1.5808859054917969e-05  6.6586783545531710e-05  1.4811717615163359e-05  1.6961661484661391e-05  1.4412069727231157e-05  1.7560957014167770e-05  1.8541031990291740e-05  6.7225252616679373e-05  1.2876408691690121e-05  1.7886953744047474e-05  1.7603996738015001e-05  1.4374100995850565e-05  8.1210530721867844e-06  6.7935746583567133e-06  2.5538430887050255e-05  7.3183098540367369e-06  6.7144431673899833e-06  2.3021208884763245e-05  7.7642231275507856e-06  6.3220486331568090e-06  6.7101937259122520e-05  6.2495426989058833e-05  6.2925955666718746e-05  6.0928405089455981e-05  5.4793797711162339e-05  5.2925104108699145e-05  5.8292879549081283e-05  4.9637985721690733e-05  5.4776496290719924e-05  4.4670452965123727e-05  5.0096101524331635e-05  4.6007159022171802e-05  6.0328635217400560e-05  5.4547460270055039e-05  4.5108437628584693e-05  4.9520099671879494e-05  3.9916767750815297e-05  4.4295487027724711e-05  5.4306737591542610e-05  4.7408292134618522e-05  3.8638047864833853e-05  4.1283987627847225e-05  4.8952450843096805e-05  4.2647844843481510e-05  5.1452941875819019e-05  4.2963117563062145e-05  5.0107835596429235e-05  4.1478508165077636e-05  4.8116912022000223e-05  3.4664983642277201e-05  5.8238826810456248e-05  3.9120321559205463e-05  4.5286263530184240e-05  5.4341595311611883e-05  5.1331735025840906e-05  4.1517353371177327e-05  4.7692293247828598e-05  3.7304705297307293e-05  4.3502833258121212e-05  5.3277312637749915e-05  4.9166116817984143e-05  3.4452274441867210e-05  3.3200688317852545e-05  6.0363569117208158e-05  6.2496404362728257e-05  5.8304679718170993e-05  5.4583005058789436e-05  4.4932222071496889e-05  5.1773899238895254e-05  4.0429982626314804e-05  4.5775551494550813e-05  5.4855283530427891e-05  4.9790964824435965e-05  4.1139009787473858e-05  4.5223826982614499e-05  5.4186014478352070e-05  4.8596272652201591e-05  3.9835353585226935e-05  4.3503405940193847e-05  5.2279140891387321e-05  4.6101208406501310e-05  3.7626719864436556e-05  3.9820305326858545e-05  4.7885090272764707e-05  4.0860493761982579e-05  4.7948386223597438e-05  4.0333920627857261e-05  4.6820614596602779e-05  3.8409788948704609e-05  4.4206569964498934e-05  3.3634329849157242e-05  3.4451015471343329e-05  3.9442452474982273e-05  4.9334315058824731e-05  4.4277873497171983e-05  5.5176781511637334e-05  5.4703284304436304e-05  4.8283041050453196e-05  3.1325591102338445e-05  3.8094775614446839e-05  4.1498864328347123e-05  5.2783003037944854e-05  4.4404397820568016e-05  5.4964710026933255e-05  4.6914162742054104e-05  5.6007235706196180e-05  4.9683173911455764e-05  3.8773096744739847e-05  4.0745181063199546e-05  5.1644998703505117e-05  4.2637959854151116e-05  5.1010658303109352e-05  4.3329530062503870e-05  5.1894783016256558e-05  4.2898537716845302e-05  5.0667393087831824e-05  4.2103848203039570e-05  4.7440526597773145e-05  4.0726730306204768e-05  4.5423919305860700e-05  3.8477673375324756e-05  4.2769000662642165e-05  3.5409785499280989e-05  3.9044732525108152e-05  3.1585939891923503e-05  3.3829139568435243e-05  3.3424934886419165e-05  4.1784930968610021e-05  3.6416386158346393e-05  2.7952621133317841e-05  2.4202926403903384e-05  4.4658195719302505e-05  3.7660156918166241e-05  2.9134696511814010e-05  5.0393752165742170e-05  4.5666099856681103e-05  3.8122641619803490e-05  4.4736490417676216e-05  3.9003345267736133e-05  4.4070910463757490e-05  3.7338608510108208e-05  4.2893759713812670e-05  3.5574656852314282e-05  4.2632376993841168e-05  5.0047713031216099e-05  5.7446072381401530e-05  2.9350358859559793e-05  2.8314330366856136e-05  6.1753317606042963e-05  3.3282950222564476e-05  3.9641486987498872e-05  2.9822609618877412e-05  6.0874058578501520e-05  4.8578733578824220e-05  3.4845524206440208e-05  2.0695476425856717e-05  2.3427521880335955e-05  5.8532461399463153e-05  5.8024334648631545e-05  4.7654358835831242e-05  4.6587479912015116e-05  3.7294268343346728e-05  4.3464585341456555e-05  3.4624352770818327e-05  4.1020592577653549e-05  4.9125281655837801e-05  4.6737572443630492e-05  3.8467627752774190e-05  4.3910049837915944e-05  3.5403539371476383e-05  4.0500379181589659e-05  4.8748367171066569e-05  4.4764777659024334e-05  5.2530218133556316e-05  4.7969967244585750e-05  4.0130997472911923e-05  4.2767197597029965e-05  3.4877380443050129e-05  5.0176468558417850e-05  4.4164973299118959e-05  5.1224854144359634e-05  4.4365744403896712e-05  5.1426429409557668e-05  4.3616974015595091e-05  5.0708495161332350e-05  3.7640399453947844e-05  3.2093776493409230e-05  2.7147137672845664e-05  5.8172849234642594e-05  5.4238318273207056e-05  5.6495827804563558e-05  5.9788014306027985e-05  4.1940284757600070e-05  5.0568137358029350e-05  3.4382092800386208e-05  5.7553111859368132e-05  5.6696804989151645e-05  4.8896097519140055e-05  6.2466434856004661e-05  2.9125063900821605e-05  2.1677376933290179e-05  1.9395421721766439e-05  2.2324325993073693e-05  3.1835012289860294e-05  2.6229297311694672e-05  3.4328949507693920e-05  1.7288857305852310e-05  2.0455882357638326e-05  4.6096418259574891e-05  2.3476213689136265e-05  5.1405459407447854e-06  4.0659702385449839e-06  5.3446555306989325e-05  4.6096826764813112e-05  6.7478627693799966e-05  6.8555281404972753e-05  2.2157516242205063e-05  6.5430557195885353e-05  6.7949662443634367e-05  6.5136436060104469e-05  5.0720894946531591e-05  2.9694115519286096e-05  2.7063880657898861e-05  1.4174690608347739e-05  4.9706781833046527e-05  5.5839331944395662e-05  6.2089591964617849e-05  5.6678740520599723e-05  5.9597553144061282e-05  5.2801321735083106e-05  6.2880269492103351e-05  6.2259378104789206e-05  6.5870174669203408e-05  6.3191612591692446e-05  6.6195934268900984e-05  1.4648410834296425e-05  7.1080893070355004e-05  2.9576463768241305e-05  6.5511119208817842e-05  3.1326404285526712e-05  6.7545298123823525e-05  6.5233704701565606e-05  6.5040068235962197e-05  6.4532014385626111e-05  5.5591265472152220e-05  6.3088473763946222e-05  6.5473574413824355e-05  6.2464982985008024e-05  3.1068898252369812e-05  2.4042249604735624e-05  2.7109370777370437e-05  1.6661861555057716e-05  6.7404056489058311e-05  6.4545634291225188e-05  6.6899327441441241e-05  6.3069703741244494e-05  6.4728985075769606e-05  6.0435535432791244e-05  6.1503652522445010e-05  6.5350814658419814e-05  2.3807540970031653e-05  6.7259569206757169e-05  5.9559497188029018e-05  3.7868689457726314e-05  5.3658077625220142e-05  5.0334238244583176e-05  6.1901580210981137e-05  5.6595160040253513e-05  6.9718528531750645e-05  5.7535471467933735e-05  5.5114400021478711e-05  5.6401126995113763e-05  5.6922697466920544e-05  5.9949677988590886e-05  6.1274349217891756e-05  6.0366493927918854e-05  6.1678211718760716e-05  5.8557572186702853e-05  4.0133206322893622e-05  3.6253020931699340e-05  6.6602257820880256e-05  6.4861140319445558e-05  6.4449423079243384e-05  6.6569572003728880e-05  6.3137059837309209e-05  5.5730763569812722e-05  2.5729122203239997e-05  6.8401866626464274e-05  6.5366596913537327e-05  2