<?xml version="1.0"?>
<VTKFile type="UnstructuredGrid"  version="0.1"  >
<UnstructuredGrid>
<Piece  NumberOfPoints="1078" NumberOfCells="2058">
<Points>
<DataArray  type="Float64"  NumberOfComponents="3"  format="ascii">0 0 0  0 1 0  1 1 0  1 0 0  1.1 -0.1 0  -0.1 -0.1 0  1.1 1.1 0  -0.1 1.1 0  0.5449886525271761 0.6139615146300145 0  0 0.9499999999997918 0  0 0.8999999999995836 0  0 0.8499999999996529 0  0 0.7999999999999998 0  0 0.7500000000003466 0  0 0.7000000000006934 0  0 0.6500000000010401 0  0 0.6000000000013869 0  0 0.5500000000017335 0  0 0.5000000000020587 0  0 0.4500000000018723 0  0 0.4000000000016644 0  0 0.3500000000014564 0  0 0.3000000000012483 0  0 0.2500000000010403 0  0 0.2000000000008322 0  0 0.1500000000006241 0  0 0.100000000000416 0  0 0.05000000000020799 0  0.04999999999989965 0 0  0.09999999999981467 0 0  0.1499999999997036 0 0  0.1999999999995579 0 0  0.2499999999994121 0 0  0.2999999999992664 0 0  0.3499999999991206 0 0  0.3999999999989749 0 0  0.4499999999988292 0 0  0.4999999999986943 0 0  0.5499999999988151 0 0  0.5999999999989468 0 0  0.6499999999990784 0 0  0.69999999999921 0 0  0.7499999999993417 0 0  0.7999999999994734 0 0  0.8499999999996051 0 0  0.8999999999997368 0 0  0.9499999999998684 0 0  1 0.04999999999989965 0  1 0.09999999999981467 0  1 0.1499999999997036 0  1 0.1999999999995579 0  1 0.2499999999994121 0  1 0.2999999999992664 0  1 0.3499999999991206 0  1 0.3999999999989749 0  1 0.4499999999988292 0  1 0.4999999999986943 0  1 0.5499999999988151 0  1 0.5999999999989468 0  1 0.6499999999990784 0  1 0.69999999999921 0  1 0.7499999999993417 0  1 0.7999999999994734 0  1 0.8499999999996051 0  1 0.8999999999997368 0  1 0.9499999999998684 0  0.9499999999997918 1 0  0.8999999999995836 1 0  0.8499999999996529 1 0  0.7999999999999998 1 0  0.7500000000003466 1 0  0.7000000000006934 1 0  0.6500000000010401 1 0  0.6000000000013869 1 0  0.5500000000017335 1 0  0.5000000000020587 1 0  0.4500000000018723 1 0  0.4000000000016644 1 0  0.3500000000014564 1 0  0.3000000000012483 1 0  0.2500000000010403 1 0  0.2000000000008322 1 0  0.1500000000006241 1 0  0.100000000000416 1 0  0.05000000000020799 1 0  -0.1 1.05000000000004 0  -0.1 1.000000000000079 0  -0.1 0.9500000000001624 0  -0.1 0.9000000000003032 0  -0.1 0.850000000000444 0  -0.1 0.8000000000005848 0  -0.1 0.7500000000007256 0  -0.1 0.7000000000008665 0  -0.1 0.6500000000010508 0  -0.1 0.6000000000012352 0  -0.1 0.5500000000014196 0  -0.1 0.500000000001539 0  -0.1 0.4500000000014195 0  -0.1 0.4000000000013 0  -0.1 0.3500000000011588 0  -0.1 0.3000000000010178 0  -0.1 0.2500000000008986 0  -0.1 0.2000000000007579 0  -0.1 0.1500000000006174 0  -0.1 0.1000000000005272 0  -0.1 0.05000000000040083 0  -0.1 2.671196597248127e-13 0  -0.1 -0.0499999999998666 0  -0.0500000000000906 -0.1 0  -1.730560139634463e-13 -0.1 0  0.04999999999975802 -0.1 0  0.09999999999961506 -0.1 0  0.1499999999994613 -0.1 0  0.199999999999302 -0.1 0  0.2499999999991446 -0.1 0  0.2999999999990088 -0.1 0  0.3499999999988296 -0.1 0  0.3999999999986936 -0.1 0  0.4499999999985143 -0.1 0  0.4999999999984002 -0.1 0  0.5499999999985247 -0.1 0  0.5999999999986493 -0.1 0  0.6499999999987955 -0.1 0  0.6999999999989417 -0.1 0  0.7499999999990659 -0.1 0  0.7999999999992116 -0.1 0  0.8499999999993573 -0.1 0  0.8999999999994526 -0.1 0  0.949999999999584 -0.1 0  0.9999999999997226 -0.1 0  1.049999999999861 -0.1 0  1.1 -0.0500000000000906 0  1.1 -1.730560139634463e-13 0  1.1 0.04999999999975802 0  1.1 0.09999999999961506 0  1.1 0.1499999999994613 0  1.1 0.199999999999302 0  1.1 0.2499999999991446 0  1.1 0.2999999999990088 0  1.1 0.3499999999988296 0  1.1 0.3999999999986936 0  1.1 0.4499999999985143 0  1.1 0.4999999999984002 0  1.1 0.5499999999985247 0  1.1 0.5999999999986493 0  1.1 0.6499999999987955 0  1.1 0.6999999999989417 0  1.1 0.7499999999990659 0  1.1 0.7999999999992116 0  1.1 0.8499999999993573 0  1.1 0.8999999999994526 0  1.1 0.949999999999584 0  1.1 0.9999999999997226 0  1.1 1.049999999999861 0  1.05000000000004 1.1 0  1.000000000000079 1.1 0  0.9500000000001624 1.1 0  0.9000000000003032 1.1 0  0.850000000000444 1.1 0  0.8000000000005848 1.1 0  0.7500000000007256 1.1 0  0.7000000000008665 1.1 0  0.6500000000010508 1.1 0  0.6000000000012352 1.1 0  0.5500000000014196 1.1 0  0.500000000001539 1.1 0  0.4500000000014195 1.1 0  0.4000000000013 1.1 0  0.3500000000011588 1.1 0  0.3000000000010178 1.1 0  0.2500000000008986 1.1 0  0.2000000000007579 1.1 0  0.1500000000006174 1.1 0  0.1000000000005272 1.1 0  0.05000000000040083 1.1 0  2.671196597248127e-13 1.1 0  -0.0499999999998666 1.1 0  0.5850764983463237 0.6055991376160991 0  0.6205465650870702 0.5795081060254834 0  0.6347672890307492 0.5381880785722145 0  0.6374474769760076 0.4976291562373393 0  0.6358258486645644 0.4579458856281619 0  0.6303127343845749 0.4190609598121404 0  0.6206350333019505 0.3809996934071738 0  0.6059054401021273 0.3443600719330082 0  0.5833519666310655 0.3109171045603618 0  0.5490449571278427 0.2885784195664914 0  0.5107454046940413 0.2878273511509627 0  0.4762113748017252 0.2978396309256248 0  0.444350986504518 0.3112341480411341 0  0.4137214119490696 0.3263391634627855 0  0.3840846704726506 0.3426529175842049 0  0.3553320212977588 0.3598621408750542 0  0.3273825067037275 0.3777670910020678 0  0.3003580658298066 0.3962557190484856 0  0.274178274329559 0.4152879926761538 0  0.2489798368920173 0.4351435756370743 0  0.2253746763425028 0.4568501872975961 0  0.2058187495433832 0.4833677992010249 0  0.2101649163885164 0.5160357938114419 0  0.2366997615653003 0.53810794610266 0  0.2664108993556196 0.5541424878228289 0  0.2975198301258023 0.5676283268154111 0  0.3297635036523295 0.5794909636625798 0  0.3630958316199721 0.5899408080494483 0  0.3974546024286845 0.5988315260652669 0  0.4328240443119608 0.6060372813111849 0  0.4691622835091259 0.6114789581102072 0  0.5064398596086644 0.6144707015877714 0  0.5993415002573378 0.4436323843150925 0  0.416517128488482 0.3674932417375782 0  0.462407892500083 0.5711766114007097 0  0.3315710176056215 0.4165132774105618 0  0.3859438527592869 0.5600913102917962 0  0.4789501118101686 0.3394584204060027 0  0.5311090543675625 0.5764419822622606 0  0.3210181108046887 0.5405581372498736 0  0.5808706814384711 0.3713339207160605 0  0.2801085714552001 0.4545102840619454 0  0.5998152293077891 0.5198587778336914 0  0.5417714739852416 0.3193909151289208 0  0.2611776354831147 0.5142184509139487 0  0.2332307289549647 0.4969150566145466 0  0.5935644684752597 0.5605452767928648 0  0.558454251546844 0.542444635319114 0  0.5691207671461215 0.4986852111792975 0  0.5326939967892702 0.5140167045157574 0  0.5389116275058996 0.4744072141276757 0  0.5036402482629173 0.4881260768869822 0  0.5094619119634527 0.447646866586925 0  0.4745600416784548 0.461182542686088 0  0.4791249910485469 0.420984676281827 0  0.4451496318339208 0.4337972823445629 0  0.4402101669520896 0.4741141393600665 0  0.4116947283546073 0.4460435403246449 0  0.513702324526549 0.4076036839517279 0  0.4067820978674003 0.4858467541081149 0  0.3802885325463449 0.4580270670193111 0  0.375438956936375 0.4957490554264725 0  0.4333791004232333 0.514776134062002 0  0.3852873935118344 0.4194376871074925 0  0.3496328459525338 0.4691793230246475 0  0.4930872329849699 0.5322428910931948 0  0.4811793152526447 0.3810493460684183 0  0.5124299708163472 0.3676722920634801 0  0.5429295110052331 0.4360013852057932 0  0.4683464464555337 0.5018820776646237 0  0.5521713274493357 0.397182163847407 0  0.4479953924826032 0.3942115645024387 0  0.4158147994299621 0.4069350406229058 0  0.4250521787497021 0.5588242922363975 0  0.3530158540805869 0.5513618304878728 0  0.4975366244949578 0.5754348430972485 0  0.3047264394968645 0.4340079749564963 0  0.3144771972551454 0.4731603814918633 0  0.4473169068549056 0.3533627649647807 0  0.3431514044866325 0.5098498045720655 0  0.2904702406469903 0.5296416089611514 0  0.2559203249006943 0.474905571264259 0  0.3858063603917798 0.3818119509959929 0  0.5929593019935123 0.4068247631444094 0  0.6023703679570651 0.48054229911401 0  0.4018208488484123 0.5238020988081806 0  0.2839584961525669 0.4923764451543068 0  0.5718371490059505 0.3415108580903088 0  0.3576535426259938 0.3978268856176259 0  0.5112622590407808 0.329026879698266 0  0.4583253009685728 0.5357386264955412 0  0.5460258001882424 0.3576995884279875 0  0.571285748575114 0.4614846894335191 0  0.3108360942727688 0.5091841610249513 0  0.3568043681150805 0.4336593217834476 0  0.5216294928782333 0.546849562922578 0  0.5618769125308799 0.580332634090722 0  0.3720380689693433 0.5282401334868672 0  0.5718827638501752 0.4290767925401347 0  0.3289890560547067 0.4458078613721091 0  0.6280596793841848 0.3594719171025672 0  0.6530699937014129 0.4781410042054332 0  0.3440265613781278 0.6015868740975721 0  0.5611280914718033 0.6261675526674712 0  0.9949396001941577 0.7122297385665765 0  0.6514941771267212 0.9940321734721619 0  0.4474991117570079 0.6259233338946486 0  0.9950457986267238 0.5414500893469442 0  0.9896236231996304 0.2727654833244084 0  0.2859764113468412 0.9837417219971611 0  0.3317162268584234 0.3512477151337036 0  0.4188573646532663 0.3010202793646378 0  0.4447065112179425 0.9918183467527658 0  0.2491898762260022 0.5630101256617106 0  0.05647318206235556 0.7648095241733814 0  0.719399057389787 0.0414739933385873 0  0.2502862106932021 0.4072410087659696 0  0.6437440856970877 0.5588480392164952 0  0.809142717509537 0.9930508313820405 0  0.241577303300953 0.04749995648267047 0  0.05882186177643962 0.2376990824917244 0  0.2049194168309009 0.4519251367070133 0  0.5668983089758962 0.0456099163967264 0  0.4043959460791512 0.04422418297941982 0  0.8617872404635446 0.03847636734321656 0  0.1912058502488512 0.5007144829814509 0  0.4874762531099822 0.2779291757426589 0  0.05176135051735933 0.6075324671946051 0  0.9937057112876581 0.8571790217915888 0  0.05296445580214384 0.3379311030878193 0  0.6321518051591658 0.591574758541179 0  0.6557545475112257 0.5748431189037787 0  0.6460
[...]
<PointData  Scalars="v"> 
<DataArray  type="Float64"  Name="v"  format="ascii">0.0000000000000000e+00  0.0000000000000000e+00  0.0000000000000000e+00  0.0000000000000000e+00  0.0000000000000000e+00  0.0000000000000000e+00  0.0000000000000000e+00  0.0000000000000000e+00  4.7685690800031389e-03  0.0000000000000000e+00  0.0000000000000000e+00  0.0000000000000000e+00  0.0000000000000000e+00  0.0000000000000000e+00  0.0000000000000000e+00  0.0000000000000000e+00  0.0000000000000000e+00  0.0000000000000000e+00  0.0000000000000000e+00  0.0000000000000000e+00  0.0000000000000000e+00  0.0000000000000000e+00  0.0000000000000000e+00  0.0000000000000000e+00  0.0000000000000000e+00  0.0000000000000000e+00  0.0000000000000000e+00  0.0000000000000000e+00  0.0000000000000000e+00  0.0000000000000000e+00  0.0000000000000000e+00  0.0000000000000000e+00  0.0000000000000000e+00  0.0000000000000000e+00  0.0000000000000000e+00  0.0000000000000000e+00  0.0000000000000000e+00  0.0000000000000000e+00  0.0000000000000000e+00  0.0000000000000000e+00  0.0000000000000000e+00  0.0000000000000000e+00  0.0000000000000000e+00  0.0000000000000000e+00  0.0000000000000000e+00  0.0000000000000000e+00  0.0000000000000000e+00  0.0000000000000000e+00  0.0000000000000000e+00  0.0000000000000000e+00  0.0000000000000000e+00  0.0000000000000000e+00  0.0000000000000000e+00  0.0000000000000000e+00  0.0000000000000000e+00  0.0000000000000000e+00  0.0000000000000000e+00  0.0000000000000000e+00  0.0000000000000000e+00  0.0000000000000000e+00  0.0000000000000000e+00  0.0000000000000000e+00  0.0000000000000000e+00  0.0000000000000000e+00  0.0000000000000000e+00  0.0000000000000000e+00  0.0000000000000000e+00  0.0000000000000000e+00  0.0000000000000000e+00  0.0000000000000000e+00  0.0000000000000000e+00  0.0000000000000000e+00  0.0000000000000000e+00  0.0000000000000000e+00  0.0000000000000000e+00  0.0000000000000000e+00  0.0000000000000000e+00  0.0000000000000000e+00  0.0000000000000000e+00  0.0000000000000000e+00  0.0000000000000000e+00  0.0000000000000000e+00  0.0000000000000000e+00  0.0000000000000000e+00  0.0000000000000000e+00  0.0000000000000000e+00  0.0000000000000000e+00  0.0000000000000000e+00  0.0000000000000000e+00  0.0000000000000000e+00  0.0000000000000000e+00  0.0000000000000000e+00  0.0000000000000000e+00  0.0000000000000000e+00  0.0000000000000000e+00  0.0000000000000000e+00  0.0000000000000000e+00  0.0000000000000000e+00  0.0000000000000000e+00  0.0000000000000000e+00  0.0000000000000000e+00  0.0000000000000000e+00  0.0000000000000000e+00  0.0000000000000000e+00  0.0000000000000000e+00  0.0000000000000000e+00  0.0000000000000000e+00  0.0000000000000000e+00  0.0000000000000000e+00  0.0000000000000000e+00  0.0000000000000000e+00  0.0000000000000000e+00  0.0000000000000000e+00  0.0000000000000000e+00  0.0000000000000000e+00  0.0000000000000000e+00  0.0000000000000000e+00  0.0000000000000000e+00  0.0000000000000000e+00  0.0000000000000000e+00  0.0000000000000000e+00  0.0000000000000000e+00  0.0000000000000000e+00  0.0000000000000000e+00  0.0000000000000000e+00  0.0000000000000000e+00  0.0000000000000000e+00  0.0000000000000000e+00  0.0000000000000000e+00  0.0000000000000000e+00  0.0000000000000000e+00  0.0000000000000000e+00  0.0000000000000000e+00  0.0000000000000000e+00  0.0000000000000000e+00  0.0000000000000000e+00  0.0000000000000000e+00  0.0000000000000000e+00  0.0000000000000000e+00  0.0000000000000000e+00  0.0000000000000000e+00  0.0000000000000000e+00  0.0000000000000000e+00  0.0000000000000000e+00  0.0000000000000000e+00  0.0000000000000000e+00  0.0000000000000000e+00  0.0000000000000000e+00  0.0000000000000000e+00  0.0000000000000000e+00  0.0000000000000000e+00  0.0000000000000000e+00  0.0000000000000000e+00  0.0000000000000000e+00  0.0000000000000000e+00  0.0000000000000000e+00  0.0000000000000000e+00  0.0000000000000000e+00  0.0000000000000000e+00  0.0000000000000000e+00  0.0000000000000000e+00  0.0000000000000000e+00  0.0000000000000000e+00  0.0000000000000000e+00  0.0000000000000000e+00  0.0000000000000000e+00  0.0000000000000000e+00  0.0000000000000000e+00  0.0000000000000000e+00  0.0000000000000000e+00  0.0000000000000000e+00  0.0000000000000000e+00  0.0000000000000000e+00  0.0000000000000000e+00  0.0000000000000000e+00  0.0000000000000000e+00  0.0000000000000000e+00  4.7863944120282590e-03  4.8407732710149818e-03  4.6753656438499307e-03  4.6171596700209459e-03  4.5423905915560085e-03  4.4189165444388596e-03  4.2531835500091023e-03  4.0799611941340543e-03  3.8872404649843593e-03  3.8002064313911207e-03  3.6754250733067417e-03  3.6839629159742806e-03  3.7131296040380742e-03  3.7096804581201442e-03  3.6812135241926225e-03  3.6173153652866654e-03  3.5114031902283294e-03  3.3738770106579953e-03  3.1982118839975920e-03  3.0051974632876164e-03  2.8164235112176448e-03  2.7542352391050997e-03  2.8332192292881229e-03  3.0260890040665804e-03  3.3338113717270614e-03  3.6393015014693090e-03  3.9184882732598491e-03  4.1702276559063460e-03  4.3567986130809413e-03  4.5172906425695507e-03  4.6543823350844284e-03  4.7480629060583151e-03  3.8351038717655533e-03  3.3171607682450448e-03  3.9085155067367910e-03  3.0835431785541565e-03  3.6315625662318753e-03  3.3268441907098947e-03  3.9850835897440682e-03  3.2110061564433294e-03  3.5559876908517079e-03  2.7967117502417128e-03  3.9491145340670390e-03  3.2795665803498223e-03  2.7032311943847357e-03  2.4893579569017416e-03  3.9657017562614921e-03  4.0290373690669758e-03  4.0220091664368452e-03  4.0989255446717224e-03  4.0293126860175598e-03  4.0267637873826635e-03  3.9328176431113280e-03  3.9068532262510796e-03  3.7952705981856550e-03  3.7491699181920967e-03  3.8368791531525693e-03  3.6551481327085763e-03  3.8029683435156390e-03  3.7245193487749706e-03  3.5284122762338590e-03  3.5735738916073552e-03  3.8782460921112016e-03  3.4160575646681518e-03  3.3697043108416075e-03  4.0490464608711266e-03  3.6117727424706436e-03  3.5800812140044020e-03  3.9138286619562921e-03  3.9818409573571410e-03  3.7315119893342862e-03  3.5863207409885991e-03  3.5185512893086031e-03  3.7548001887640499e-03  3.4326937014301190e-03  3.9706479013811814e-03  2.9550332189122682e-03  3.1142786957667526e-03  3.3370762937311848e-03  3.3649783592914605e-03  2.9816765499955070e-03  2.6115329910668390e-03  3.2677102326806760e-03  3.7181361143679343e-03  3.9194192187440545e-03  3.7226259513186669e-03  2.8619246831131204e-03  3.4641658131440846e-03  3.1905464107344112e-03  3.2865155704040411e-03  3.9513482228914565e-03  3.4969412810904239e-03  3.9372341392672561e-03  3.1166640775849609e-03  3.2954427381459263e-03  4.0532884097912803e-03  4.0451336037264094e-03  3.5464751220820809e-03  3.8287458548718384e-03  3.1458769054106429e-03  4.6217678491560837e-03  5.1281265995180526e-03  4.5780636898631174e-03  5.3242173595323648e-03  1.3362509786434389e-04  1.7265722471687922e-04  5.2136156325654041e-03  1.5995253868562832e-04  2.2976972593867568e-04  3.5165538384079170e-04  3.9609509904840988e-03  4.1313385161260638e-03  2.5204774081095808e-04  3.5828496431350508e-03  7.8027428369316343e-04  7.2158047317593603e-04  3.4402320474512600e-03  5.2219778396146123e-03  1.2848518305411287e-04  6.2266272675655398e-04  7.1456326093350482e-04  2.9944228627645079e-03  9.3581776806403558e-04  8.4836653854865297e-04  3.8609777569872266e-04  2.8785310474312891e-03  4.0204583587877055e-03  9.5750676353775939e-04  9.2286842788359734e-05  8.4698968844850407e-04  5.3014111779905553e-03  5.3998602009450265e-03  5.4048786897923275e-03  5.3290570502675331e-03  5.2875012616945237e-03  5.1223958580291244e-03  5.0333488474884388e-03  4.8260139520018390e-03  4.6997111304024741e-03  4.8876203532198167e-03  4.8795976079812906e-03  4.5211660448493448e-03  4.6667577747800480e-03  4.4257669867748201e-03  4.2818857834367773e-03  4.3725001445236522e-03  3.9699929458192817e-03  3.8604881325152570e-03  4.0107960233114132e-03  4.3907247101292162e-03  3.9731412411902088e-03  4.3316074568255552e-03  3.8653929119323678e-03  4.1978357339073607e-03  3.6995060041993804e-03  4.0040077526862965e-03  3.5328143552336992e-03  3.4026954459167587e-03  3.4796217370790801e-03  3.7457231913704627e-03  3.4913316494082623e-03  3.0574521315195956e-03  2.9143526336211528e-03  3.2066800000281189e-03  3.4312579133872990e-03  2.5613970220481103e-03  2.4144773405964559e-03  2.7009732079569227e-03  3.9364939442592959e-03  3.5794569328738346e-03  3.0800264585378566e-03  3.1880409490864891e-03  2.7015766236381531e-03  2.1914953903507551e-03  2.4084684465087583e-03  3.6356086693489185e-03  3.2059995040112847e-03  2.6389080161034239e-03  4.4756285266044308e-03  3.5924472474786829e-03  3.1247661942443452e-03  2.9098152893492469e-03  1.9186321774407474e-03  4.1954596924515637e-04  1.6993151176225270e-03  2.4064415624504941e-04  1.1152091429426423e-04  1.5969741475656466e-04  2.4443678306964385e-04  3.9918872555512611e-03  3.0079519013860826e-03  2.7914406753564995e-03  2.8979002737891681e-03  2.5716182004313060e-03  2.4911347718089569e-03  2.6426562811536166e-03  5.4130602577172338e-03  2.1442298006834498e-03  2.7511061719988194e-03  2.6321021283522779e-03  4.6455557937639984e-04  2.6304533650201231e-03  2.1472278075250657e-03  3.4474623949361542e-03  3.0174914181509038e-03  2.7094586890350002e-03  1.4470411592300218e-03  2.2689396197797767e-03  4.7139076636196009e-03  2.2155944276461672e-03  2.2068674082102988e-03  3.0172563936690096e-03  2.5842033451078388e-03  2.0474425041216633e-03  2.1365977059208691e-03  2.6671334237585750e-03  2.1786957074937758e-03  2.7032126119324123e-03  2.1797389208811115e-03  2.6938598654928647e-03  2.1229685294326169e-03  2.6276012218672106e-03  2.0385741564734822e-03  2.5166453806693334e-03  3.0974846807655569e-03  2.9605517315254987e-03  2.3899796235231285e-03  2.7934539385323664e-03  3.3426242442897327e-03  3.1425055605957745e-03  2.5996563117705609e-03  2.9012123875076733e-03  2.3784645714286512e-03  2.6125264401238055e-03  3.1185009251818653e-03  2.1395746244355141e-03  2.7720242272699798e-03  4.1761460567278762e-03  3.2400156092500538e-03  3.6610707150503143e-03  2.8442612902684077e-03  3.2663073067159790e-03  2.8220322562084290e-03  3.1995753147026663e-03  2.4253835301067199e-03  2.0681910588769112e-03  3.6955177342452650e-03  2.7101938310077366e-03  3.1181807963278334e-03  2.3055907347618644e-03  2.0303010137698594e-03  1.6493539918740678e-03  7.1475021526007040e-05  1.2375423037774315e-03  1.0195411012475361e-03  3.2174108910733488e-03  4.0687967561877309e-03  4.1148588472199321e-03  3.9579571224361045e-03  4.2557882061501698e-03  1.1460907639391248e-03  1.6646490681681938e-03  2.4018306628424105e-03  2.0449041568810894e-03  2.3037755354886925e-03  5.3318394245027425e-03  1.6038227404720569e-03  2.2599560223994729e-03  2.0890649715708497e-03  1.7877547784081306e-03  2.5582254552726520e-03  2.1263229999571660e-03  2.5340422804585078e-03  2.8421229836649176e-03  2.4410490895476651e-03  1.9242231565441985e-03  1.5398207717690353e-03  1.4463350489981352e-03  2.1812898974308613e-03  4.2183965866572176e-04  1.8675546545808526e-03  2.2940082738556471e-03  1.8847119734456796e-03  2.2697053238424983e-03  3.1028830601890736e-03  4.0359280242691130e-03  1.5569336055710312e-03  1.7888119957785535e-03  1.8778238075319387e-03  1.4992398706291147e-03  8.3270601775640811e-04  9.5984351222739867e-04  6.6893200055384897e-04  4.9722863083234963e-03  1.4220457613974696e-03  1.4730617911253466e-03  2.3516749524076343e-03  3.6594775332643163e-03  3.8580983148776508e-03  4.1336531205813905e-03  4.3143355190430810e-03  4.5526303041212813e-03  4.7107349958118898e-03  4.4498823726775959e-03  4.9257255115259489e-03  4.7333347208760503e-03  5.0319675897267943e-03  4.8277601503415174e-03  4.4971606843059453e-03  4.5950479505872475e-03  2.2754038806225194e-03  2.5748530174366266e-03  1.9442448009660161e-03  1.4551532262747235e-04  1.9256871748599006e-04  4.1973647823113141e-03  3.6926729026478338e-03  3.0935698764782294e-03  2.8184176715885137e-03  2.2979822128453516e-03  2.5398138378111518e-03  3.0332631935629326e-03  2.7474136498146342e-03  3.2911599193986133e-03  2.9284597277331533e-03  3.3850056179823558e-03  3.0335128174113044e-03  2.5753135196052062e-03  2.6652502768428330e-03  3.0916970252326571e-03  2.7001502958739006e-03  3.0766170867200554e-03  2.6634869148420568e-03  2.9844340905610381e-03  2.5492964690647033e-03  2.2336837914362397e-03  2.8159771324072691e-03  2.3612817775997422e-03  2.1839182795951552e-03  2.5721788781777645e-03  2.1060606576984641e-03  1.9253371495406406e-03  3.5426611173489031e-03  3.2571880858819958e-03  2.1952771954539393e-03  4.4557590598484987e-03  1.5448708966642351e-03  9.7609549211445114e-04  1.0583134716601631e-03  1.1580952173068290e-03  2.2685236399927291e-03  2.7824114851592724e-03  1.7709548447699132e-03  2.5501034037020321e-03  2.1900139249036946e-03  1.3066631768477274e-03  4.2528310992821262e-03  3.7084878331757228e-03  3.7834039116461191e-03  5.0217234230471829e-03  5.0555181080504507e-03  1.2172102011949759e-03  7.4084970026154636e-04  4.3188668882706066e-03  5.5486919651399993e-05  1.9914457295851264e-03  1.6648094293329771e-03  1.4243759651707095e-03  1.1448637015370731e-03  2.6694556063565794e-03  3.8912482859752061e-03  2.0512435083258613e-03  1.6494846308505637e-03  1.7842941820283642e-03  1.0851219736404310e-03  1.0932141724814184e-03  7.7437915358900160e-04  7.1800693987489090e-04  8.1803594110014947e-04  5.9902421154036127e-04  6.5623619882242579e-04  1.0546758659663680e-03  8.9814305043340692e-04  1.3559950757782685e-03  8.0860943333074472e-04  1.2452051060398422e-03  7.2750730225791961e-04  1.1409354049005712e-03  3.3834667676923219e-03  3.4695886786109500e-03  3.1487599722667186e-03  3.7511508969959987e-03  3.7965703135339800e-03  4.1037860059901995e-03  4.1194671743923191e-03  4.4173848866041754e-03  4.4167753595222813e-03  4.7107181405638765e-03  4.6642072239655181e-03  4.9661545050810434e-03  4.8967993739153087e-03  5.1809667318512033e-03  5.0616598509789943e-03  5.3605142825124442e-03  5.1592545082894065e-03  5.4009015278305914e-03  5.1645205492125874e-03  5.3971716949485693e-03  4.8238474952111334e-03  5.5286399990650660e-03  5.5199127358812319e-03  5.3422614853655135e-03  5.4673706692193996e-03  1.9712374655559842e-03  1.2619544285949898e-03  2.5601114964805723e-03  1.4051664665816620e-03  5.1315746229031673e-03  4.0144323705259511e-03  1.8860865325911944e-03  1.9467066337369662e-03  8.7156967454170265e-04  2.6506666573408435e-03  4.1098400591172753e-03  1.2409293059885288e-03  1.3327280800674872e-03  3.7890059804289648e-03  4.0028970879625210e-03  2.3024847979977296e-03  2.7987425947579763e-03  4.2826081149553892e-03  4.5252534560462002e-04  1.8084966985760381e-03  9.6860756256123438e-04  3.4542668400237153e-04  5.4949569323454722e-03  2.6994652766585813e-04  4.1316186943104825e-03  1.2776519841209972e-03  1.4130014795113990e-03  1.8541258587525516e-03  1.4663588737125872e-03  1.0118373456379699e-03  5.1633713030026437e-03  1.4518760202373597e-03  4.8059387652423461e-03  4.5620548174791714e-03  5.3254598469537721e-03  3.7201066888680029e-03  9.0295740076216816e-04  4.4449101235126046e-04  5.4602640136506061e-03  6.4335625484639332e-04  1.0915102674021017e-03  6.0230517385558545e-04  5.2631880040172043e-03  5.2339927505755512e-03  5.3285736040009773e-03  3.9404820567556101e-03  3.7049131840953095e-03  4.0866048248254482e-03  8.9565499599429058e-04  1.1452877935340926e-03  6.6731427438657771e-04  8.7381520422373223e-04  3.8541843129895749e-03  6.6547563252630131e-04  1.0242630425673037e-03  5.7566717246759378e-04  8.7697996143792966e-04  1.3238531675692762e-03  1.1231008788336674e-03  7.1636502307286486e-04  8.8449471186811978e-04  1.2962305376331923e-03  5.3626788218267055e-04  9.7906078590583230e-04  1.3695664661744920e-03  9.5671995895561140e-04  1.3222402151457900e-03  1.7237391942773776e-03  5.2128745202826184e-03  3.2179971420525258e-03  3.2945450350945790e-03  3.4958464736085447e-03  3.0452485167493113e-03  3.6767048543843912e-03  3.4702981992899284e-03  3.8149813663034236e-03  3.6928386009755228e-03  3.5019837320403092e-03  3.7847739670559626e-03  3.9800502754574023e-03  4.4450502011761164e-03  1.6551443812603743e-03  1.3115991453117462e-03  1.5840400319047272e-03  1.4308366958359928e-03  9.7083140913887427e-04  3.6478825840881206e-03  4.8032479348645175e-03  1.9292038502280708e-04  7.0016937855246742e-04  3.0927053290879052e-03  7.9343165311931681e-04  1.2591320855506070e-03  1.0714234774657154e-03  5.9123631228537852e-04  8.9187498493458221e-04  1.3281045444594806e-03  1.0351359214956204e-03  6.7494902876338045e-04  3.3534210805248984e-04  1.5146485530600534e-03  4.0925990350852174e-03  4.3848193222986434e-03  4.2390742385426715e-03  3.4223917360608016e-03  8.5536721499574375e-04  3.6421297732792692e-03  2.4175606911550256e-03  2.5830275099106349e-03  4.1287792676467944e-03  3.5179555188506154e-03  3.7236402411449255e-03  3.2055022656141238e-03  3.7051063623035597e-03  3.6749699415080835e-03  4.1392817077387442e-03  4.1300942028700549e-03  4.0770210201839848e-03  3.6013379995826055e-03  3.9902163749239100e-03  4.5529739334181441e-03  3.4995250659329720e-03  5.3561103593698940e-03  4.6330561407510237e-03  5.0251355957158465e-03  1.8139057245456245e-04  4.8256064067045792e-04  4.6555132356880229e-03  2.6405131998815169e-03  3.1456177284593188e-03  3.9408698252029568e-04  1.5700413568405104e-03  2.4294146289942416e-04  2.4916648139363176e-04  1.7832508151793146e-03  1.7081696499794776e-03  8.3722750946932693e-04  7.9213014910432453e-04  1.1651203360376720e-03  3.4628961994392833e-03  4.1155386699949434e-03  4.0669046119852408e-03  4.0694343558281788e-03  4.0996179684152758e-03  4.2965758741077050e-03  5.4160275136505174e-04  8.4242743594700590e-04  7.6796587585071488e-04  3.1281581905505994e-03  8.7867221041134530e-04  1.5337951443954534e-03  1.4199710729564494e-03  5.2609176168064208e-04  4.7122768176111945e-03  1.4178785001371693e-03  3.5818547565387555e-03  4.8206148049611385e-03  1.7125133943939348e-04  2.5353903336202847e-04  2.5916634021597607e-04  1.5616799705984123e-03  4.5858680490788615e-03  3.1034239881328856e-04  3.2158833157725671e-03  1.4101151213244830e-03  9.4088055283942024e-04  2.7208681422987834e-03  1.3528790193450738e-04  2.3175867296487736e-03  1.2559856585466324e-03  2.6735459623437440e-04  1.0631236394951406e-04  4.4500988875886019e-04  2.8694568138641245e-04  1.6863144837198093e-04  3.8715762009925887e-03  3.2111462795875604e-03  1.8087719506181927e-03  5.3162082403135878e-03  2.9508752411606821e-03  7.9968183576364129e-05  2.9031521482924795e-04  8.4460234557591127e-04  3.8555722226228531e-03  1.9272215128939018e-03  4.0286283570493209e-03  1.0086913147863858e-04  5.8922869753761785e-04  4.8014302645577414e-04  5.7913287723154380e-04  1.1546732430245340e-03  1.6128352353608892e-03  1.1832276500765997e-04  3.2016383190300083e-03  1.5907554709242307e-03  5.1354171525491510e-03  4.8992928167894394e-03  3.1812512366045194e-03  1.1549259070283290e-03  2.3905409724557037e-03  7.6864714381958245e-04  4.8407815041026083e-03  2.2716900955061601e-03  1.9005019030836955e-03  4.5277645238337274e-03  8.1569812018935143e-04  1.0582269548928185e-03  1.6240980355678629e-03  1.7009686638794687e-03  3.1597399544530478e-03  2.3400226159414356e-03  3.8999498497683705e-03  2.0668571251449123e-03  3.3511169164931317e-03  1.3411737118897108e-03  1.4110920309308801e-03  4.5560145728086934e-03  3.9057829816440330e-03  2.8904767898112037e-03  5.5236220497047383e-03  5.4818647397167517e-03  5.3816717873936123e-03  3.8646416523293643e-04  2.6102628911999149e-04  7.6632917445789621e-04  2.7869795997435276e-03  2.4426700090432989e-04  1.2801396488840527e-04  1.0321265580115937e-03  2.1741513109600682e-04  3.5531124187089820e-05  2.4178546558643629e-03  1.2991897993508750e-04  5.0484625267861625e-03  8.5168773723281273e-04  2.1493699718435765e-03  5.0351842366222217e-03  5.2134443383892596e-03  3.9909016868324883e-03  4.1210119936307609e-03  4