<?xml version="1.0"?>
<VTKFile type="UnstructuredGrid"  version="0.1"  >
<UnstructuredGrid>
<Piece  NumberOfPoints="1259" NumberOfCells="2420">
<Points>
<DataArray  type="Float64"  NumberOfComponents="3"  format="ascii">0 0 0  0 1 0  1 1 0  1 0 0  1.1 -0.1 0  -0.1 -0.1 0  1.1 1.1 0  -0.1 1.1 0  0.4971506609484025 0.5013753301629362 0  0.6119137227736414 0.7374019499831816 0  0 0.9499999999997918 0  0 0.8999999999995836 0  0 0.8499999999996529 0  0 0.7999999999999998 0  0 0.7500000000003466 0  0 0.7000000000006934 0  0 0.6500000000010401 0  0 0.6000000000013869 0  0 0.5500000000017335 0  0 0.5000000000020587 0  0 0.4500000000018723 0  0 0.4000000000016644 0  0 0.3500000000014564 0  0 0.3000000000012483 0  0 0.2500000000010403 0  0 0.2000000000008322 0  0 0.1500000000006241 0  0 0.100000000000416 0  0 0.05000000000020799 0  0.04999999999989965 0 0  0.09999999999981467 0 0  0.1499999999997036 0 0  0.1999999999995579 0 0  0.2499999999994121 0 0  0.2999999999992664 0 0  0.3499999999991206 0 0  0.3999999999989749 0 0  0.4499999999988292 0 0  0.4999999999986943 0 0  0.5499999999988151 0 0  0.5999999999989468 0 0  0.6499999999990784 0 0  0.69999999999921 0 0  0.7499999999993417 0 0  0.7999999999994734 0 0  0.8499999999996051 0 0  0.8999999999997368 0 0  0.9499999999998684 0 0  1 0.04999999999989965 0  1 0.09999999999981467 0  1 0.1499999999997036 0  1 0.1999999999995579 0  1 0.2499999999994121 0  1 0.2999999999992664 0  1 0.3499999999991206 0  1 0.3999999999989749 0  1 0.4499999999988292 0  1 0.4999999999986943 0  1 0.5499999999988151 0  1 0.5999999999989468 0  1 0.6499999999990784 0  1 0.69999999999921 0  1 0.7499999999993417 0  1 0.7999999999994734 0  1 0.8499999999996051 0  1 0.8999999999997368 0  1 0.9499999999998684 0  0.9499999999997918 1 0  0.8999999999995836 1 0  0.8499999999996529 1 0  0.7999999999999998 1 0  0.7500000000003466 1 0  0.7000000000006934 1 0  0.6500000000010401 1 0  0.6000000000013869 1 0  0.5500000000017335 1 0  0.5000000000020587 1 0  0.4500000000018723 1 0  0.4000000000016644 1 0  0.3500000000014564 1 0  0.3000000000012483 1 0  0.2500000000010403 1 0  0.2000000000008322 1 0  0.1500000000006241 1 0  0.100000000000416 1 0  0.05000000000020799 1 0  -0.1 1.05000000000004 0  -0.1 1.000000000000079 0  -0.1 0.9500000000001624 0  -0.1 0.9000000000003032 0  -0.1 0.850000000000444 0  -0.1 0.8000000000005848 0  -0.1 0.7500000000007256 0  -0.1 0.7000000000008665 0  -0.1 0.6500000000010508 0  -0.1 0.6000000000012352 0  -0.1 0.5500000000014196 0  -0.1 0.500000000001539 0  -0.1 0.4500000000014195 0  -0.1 0.4000000000013 0  -0.1 0.3500000000011588 0  -0.1 0.3000000000010178 0  -0.1 0.2500000000008986 0  -0.1 0.2000000000007579 0  -0.1 0.1500000000006174 0  -0.1 0.1000000000005272 0  -0.1 0.05000000000040083 0  -0.1 2.671196597248127e-13 0  -0.1 -0.0499999999998666 0  -0.0500000000000906 -0.1 0  -1.730560139634463e-13 -0.1 0  0.04999999999975802 -0.1 0  0.09999999999961506 -0.1 0  0.1499999999994613 -0.1 0  0.199999999999302 -0.1 0  0.2499999999991446 -0.1 0  0.2999999999990088 -0.1 0  0.3499999999988296 -0.1 0  0.3999999999986936 -0.1 0  0.4499999999985143 -0.1 0  0.4999999999984002 -0.1 0  0.5499999999985247 -0.1 0  0.5999999999986493 -0.1 0  0.6499999999987955 -0.1 0  0.6999999999989417 -0.1 0  0.7499999999990659 -0.1 0  0.7999999999992116 -0.1 0  0.8499999999993573 -0.1 0  0.8999999999994526 -0.1 0  0.949999999999584 -0.1 0  0.9999999999997226 -0.1 0  1.049999999999861 -0.1 0  1.1 -0.0500000000000906 0  1.1 -1.730560139634463e-13 0  1.1 0.04999999999975802 0  1.1 0.09999999999961506 0  1.1 0.1499999999994613 0  1.1 0.199999999999302 0  1.1 0.2499999999991446 0  1.1 0.2999999999990088 0  1.1 0.3499999999988296 0  1.1 0.3999999999986936 0  1.1 0.4499999999985143 0  1.1 0.4999999999984002 0  1.1 0.5499999999985247 0  1.1 0.5999999999986493 0  1.1 0.6499999999987955 0  1.1 0.6999999999989417 0  1.1 0.7499999999990659 0  1.1 0.7999999999992116 0  1.1 0.8499999999993573 0  1.1 0.8999999999994526 0  1.1 0.949999999999584 0  1.1 0.9999999999997226 0  1.1 1.049999999999861 0  1.05000000000004 1.1 0  1.000000000000079 1.1 0  0.9500000000001624 1.1 0  0.9000000000003032 1.1 0  0.850000000000444 1.1 0  0.8000000000005848 1.1 0  0.7500000000007256 1.1 0  0.7000000000008665 1.1 0  0.6500000000010508 1.1 0  0.6000000000012352 1.1 0  0.5500000000014196 1.1 0  0.500000000001539 1.1 0  0.4500000000014195 1.1 0  0.4000000000013 1.1 0  0.3500000000011588 1.1 0  0.3000000000010178 1.1 0  0.2500000000008986 1.1 0  0.2000000000007579 1.1 0  0.1500000000006174 1.1 0  0.1000000000005272 1.1 0  0.05000000000040083 1.1 0  2.671196597248127e-13 1.1 0  -0.0499999999998666 1.1 0  0.6345447554447716 0.7267423978929239 0  0.6555218484619947 0.7135731856592727 0  0.6744270913267822 0.6976929319347861 0  0.6907854249834826 0.6795872905604428 0  0.70437380344443 0.6595333835382365 0  0.715177811326251 0.637976577470727 0  0.7236932841226373 0.6155136800302304 0  0.729242719849271 0.5920380504298749 0  0.7328213196311896 0.5680359493477632 0  0.7346550282543011 0.5437003085892383 0  0.7346189754497432 0.519158012498971 0  0.7331238255184896 0.4945358115894744 0  0.7301627403080366 0.4699600537233781 0  0.7257626688996068 0.4455677445498924 0  0.7199038808805188 0.4214707573684693 0  0.7126021202527575 0.3978560338878894 0  0.7038167162689353 0.3748580579465852 0  0.6934708692661551 0.3526546166981938 0  0.681560030672742 0.3313967410235036 0  0.667765429456313 0.3114582082527044 0  0.6521332112278622 0.2930357559882787 0  0.6345649600935133 0.2764355913844834 0  0.6147162442942199 0.26266321200839 0  0.5931869401796604 0.2514279726416435 0  0.569977095160483 0.2434408277281669 0  0.5456292239523877 0.2390996501797484 0  0.5207170591065943 0.238040356940491 0  0.495744317943634 0.2403883823062954 0  0.4709623594094889 0.2456955264172947 0  0.4466681312230926 0.2535413336969061 0  0.4230863951277986 0.2637599602071674 0  0.4003532881195345 0.276033850810911 0  0.3786605438604868 0.2901543943625131 0  0.3582325589888197 0.3059101404725886 0  0.3389602456245173 0.3228895987686613 0  0.3215346428333868 0.3411921061605755 0  0.305509718182415 0.3601386816133986 0  0.2910493252126523 0.3796281133873836 0  0.2781196454281535 0.3993896053009382 0  0.2666674893306735 0.419282593757743 0  0.2567456361628166 0.439383987875711 0  0.2485758826875427 0.459805661533952 0  0.2427771870264374 0.4806474191967039 0  0.2404212050180325 0.5017207356470131 0  0.2407817938451145 0.5217625623569599 0  0.2434133219566994 0.5411926313118326 0  0.2492699922207759 0.5611929136134476 0  0.2576069568533386 0.5809365376865906 0  0.268603689243966 0.5997237483015136 0  0.281486473702041 0.6177289824036818 0  0.2957554447122567 0.6353463188599535 0  0.3114080262710038 0.6526267437553767 0  0.3285217605335567 0.6693572922959127 0  0.3472307911967133 0.6853408018308179 0  0.367505225376152 0.7002483818752886 0  0.3891247476259386 0.7138231320813686 0  0.4119506270948269 0.7257965175744862 0  0.4358688226581016 0.7359493433480514 0  0.460637832439191 0.7440240240450687 0  0.4859779803749534 0.7494468847805847 0  0.5117183044827391 0.7521955272138188 0  0.5374385253777747 0.7524221278858192 0  0.5628760176566829 0.7500396842565695 0  0.5877621607919206 0.7450351324454944 0  0.3040880069312035 0.6071961058170831 0  0.630251414839157 0.2993540071360889 0  0.6676988142514909 0.6772144141519711 0  0.2906109287939304 0.4231877309523653 0  0.6794896652088865 0.3714361620081491 0  0.5119736799401475 0.2607848750600036 0  0.7072577422308147 0.5786611667149504 0  0.3508160348396775 0.6578547609889591 0  0.4095095654949331 0.6999362502514683 0  0.4787506165428397 0.7210076987848965 0  0.5937420751289709 0.7195649372008065 0  0.4427920544040542 0.2791969668548702 0  0.7098601865766646 0.5058406572497191 0  0.7030515657246451 0.437237094980081 0  0.2602797785212043 0.4790780182389626 0  0.3299363105502669 0.3666815497502082 0  0.3817140762005218 0.3168772582741777 0  0.2690169892644561 0.5625792580270494 0  0.5768650434927954 0.2673403539866712 0  0.5245059340536721 0.729356721862874 0  0.7000154457621863 0.6205898164646998 0  0.6592117959839578 0.3326405510879634 0  0.6353367605998629 0.698039903805836 0  0.2574131837320613 0.5144820509410118 0  0.2793421598235126 0.4423907439950957 0  0.301669666230002 0.4476337608268153 0  0.3139125238019717 0.4285686114400191 0  0.3237674638928439 0.4546210167938561 0  0.3362786207851633 0.4352144279490604 0  0.3482715343579861 0.4631888070249853 0  0.3562586809708113 0.4356077435779715 0  0.3330254364178643 0.4849501703993125 0  0.3593605791710975 0.4952551486509328 0  0.3409005959055287 0.5187083375751449 0  0.3690380081177124 0.5315287998014718 0  0.3139870681018184 0.503761072160181 0  0.3209897339500928 0.5384316721375376 0  0.3890147182175631 0.5040288312437164 0  0.3987608942913381 0.5450276717798881 0  0.3745434769924456 0.5773829302500536 0  0.4049945351222781 0.5939584476351354 0  0.298790385433567 0.526159729193884 0  0.3021872703173441 0.5548583060993704 0  0.3212560511700074 0.568191045900156 0  0.4331159652045336 0.5606517887003256 0  0.4371196895629675 0.610616740460625 0  0.4131657469039762 0.624910933970481 0  0.4434275635788325 0.6478112768402388 0  0.4696948679409577 0.6271429015130617 0  0.4784392149728203 0.6564586359771557 0  0.5037575077665274 0.6429260574250873 0  0.4505752206611895 0.6788069390294404 0  0.2897696210331735 0.4661550546527619 0  0.3249002628918186 0.4099359470385323 0  0.50144389037889 0.5943205996069304 0  0.5372874899729335 0.6122551352898943 0  0.5358729980036138 0.6590331244154878 0  0.5720202003776431 0.6382279249814599 0  0.5705620651673438 0.5882477466395315 0  0.6038939374757876 0.6053157327376304 0  0.6030899064471683 0.5648508143723576 0  0.6341126311072952 0.5812501607637798 0  0.6392679016474441 0.5425587655985487 0  0.6033568391191724 0.5246117793626431 0  0.6408029013034769 0.5035131801084386 0  0.6032645080951031 0.4840758804529933 0  0.6392013813082065 0.4599932691869706 0  0.603422891128118 0.44
[...]
<PointData  Scalars="v"> 
<DataArray  type="Float64"  Name="v"  format="ascii">0.0000000000000000e+00  0.0000000000000000e+00  0.0000000000000000e+00  0.0000000000000000e+00  0.0000000000000000e+00  0.0000000000000000e+00  0.0000000000000000e+00  0.0000000000000000e+00  2.0568790845892229e-05  -5.3843957739926128e-06  0.0000000000000000e+00  0.0000000000000000e+00  0.0000000000000000e+00  0.0000000000000000e+00  0.0000000000000000e+00  0.0000000000000000e+00  0.0000000000000000e+00  0.0000000000000000e+00  0.0000000000000000e+00  0.0000000000000000e+00  0.0000000000000000e+00  0.0000000000000000e+00  0.0000000000000000e+00  0.0000000000000000e+00  0.0000000000000000e+00  0.0000000000000000e+00  0.0000000000000000e+00  0.0000000000000000e+00  0.0000000000000000e+00  0.0000000000000000e+00  0.0000000000000000e+00  0.0000000000000000e+00  0.0000000000000000e+00  0.0000000000000000e+00  0.0000000000000000e+00  0.0000000000000000e+00  0.0000000000000000e+00  0.0000000000000000e+00  0.0000000000000000e+00  0.0000000000000000e+00  0.0000000000000000e+00  0.0000000000000000e+00  0.0000000000000000e+00  0.0000000000000000e+00  0.0000000000000000e+00  0.0000000000000000e+00  0.0000000000000000e+00  0.0000000000000000e+00  0.0000000000000000e+00  0.0000000000000000e+00  0.0000000000000000e+00  0.0000000000000000e+00  0.0000000000000000e+00  0.0000000000000000e+00  0.0000000000000000e+00  0.0000000000000000e+00  0.0000000000000000e+00  0.0000000000000000e+00  0.0000000000000000e+00  0.0000000000000000e+00  0.0000000000000000e+00  0.0000000000000000e+00  0.0000000000000000e+00  0.0000000000000000e+00  0.0000000000000000e+00  0.0000000000000000e+00  0.0000000000000000e+00  0.0000000000000000e+00  0.0000000000000000e+00  0.0000000000000000e+00  0.0000000000000000e+00  0.0000000000000000e+00  0.0000000000000000e+00  0.0000000000000000e+00  0.0000000000000000e+00  0.0000000000000000e+00  0.0000000000000000e+00  0.0000000000000000e+00  0.0000000000000000e+00  0.0000000000000000e+00  0.0000000000000000e+00  0.0000000000000000e+00  0.0000000000000000e+00  0.0000000000000000e+00  0.0000000000000000e+00  0.0000000000000000e+00  0.0000000000000000e+00  0.0000000000000000e+00  0.0000000000000000e+00  0.0000000000000000e+00  0.0000000000000000e+00  0.0000000000000000e+00  0.0000000000000000e+00  0.0000000000000000e+00  0.0000000000000000e+00  0.0000000000000000e+00  0.0000000000000000e+00  0.0000000000000000e+00  0.0000000000000000e+00  0.0000000000000000e+00  0.0000000000000000e+00  0.0000000000000000e+00  0.0000000000000000e+00  0.0000000000000000e+00  0.0000000000000000e+00  0.0000000000000000e+00  0.0000000000000000e+00  0.0000000000000000e+00  0.0000000000000000e+00  0.0000000000000000e+00  0.0000000000000000e+00  0.0000000000000000e+00  0.0000000000000000e+00  0.0000000000000000e+00  0.0000000000000000e+00  0.0000000000000000e+00  0.0000000000000000e+00  0.0000000000000000e+00  0.0000000000000000e+00  0.0000000000000000e+00  0.0000000000000000e+00  0.0000000000000000e+00  0.0000000000000000e+00  0.0000000000000000e+00  0.0000000000000000e+00  0.0000000000000000e+00  0.0000000000000000e+00  0.0000000000000000e+00  0.0000000000000000e+00  0.0000000000000000e+00  0.0000000000000000e+00  0.0000000000000000e+00  0.0000000000000000e+00  0.0000000000000000e+00  0.0000000000000000e+00  0.0000000000000000e+00  0.0000000000000000e+00  0.0000000000000000e+00  0.0000000000000000e+00  0.0000000000000000e+00  0.0000000000000000e+00  0.0000000000000000e+00  0.0000000000000000e+00  0.0000000000000000e+00  0.0000000000000000e+00  0.0000000000000000e+00  0.0000000000000000e+00  0.0000000000000000e+00  0.0000000000000000e+00  0.0000000000000000e+00  0.0000000000000000e+00  0.0000000000000000e+00  0.0000000000000000e+00  0.0000000000000000e+00  0.0000000000000000e+00  0.0000000000000000e+00  0.0000000000000000e+00  0.0000000000000000e+00  0.0000000000000000e+00  0.0000000000000000e+00  0.0000000000000000e+00  0.0000000000000000e+00  0.0000000000000000e+00  0.0000000000000000e+00  0.0000000000000000e+00  0.0000000000000000e+00  0.0000000000000000e+00  0.0000000000000000e+00  0.0000000000000000e+00  0.0000000000000000e+00  0.0000000000000000e+00  0.0000000000000000e+00  0.0000000000000000e+00  0.0000000000000000e+00  0.0000000000000000e+00  0.0000000000000000e+00  0.0000000000000000e+00  0.0000000000000000e+00  -5.4118354993444677e-06  -4.1343339212756551e-06  -1.4697639812242636e-06  2.4047082152535621e-06  7.3264262571459663e-06  1.2941303441822981e-05  1.9225682335791628e-05  2.5609597388110356e-05  3.1560307135008869e-05  3.7157274966289446e-05  4.1736315480390836e-05  4.5261523320964666e-05  4.7363421021473449e-05  4.7420755282724136e-05  4.5933487648064773e-05  4.3130157893045889e-05  3.8940228546881347e-05  3.3787330755920144e-05  2.7960740526597464e-05  2.1976213977304606e-05  1.6130447214281581e-05  1.0848650649843990e-05  6.4574825058095026e-06  3.3373503245985404e-06  1.4872699363542969e-06  1.1452529700586959e-06  2.1623421371919621e-06  4.4451523285178616e-06  7.6960601489268503e-06  1.1656459555128250e-05  1.6010755490292668e-05  2.0309909235323413e-05  2.4137916221929587e-05  2.7223835782979639e-05  2.9746775728223721e-05  3.0671347541014344e-05  3.0909261471999331e-05  3.0264365458133150e-05  2.8879315717306112e-05  2.7066179823999202e-05  2.5135835451103913e-05  2.3273910905755859e-05  2.1823379575332873e-05  2.0788123958117318e-05  2.0442194759338809e-05  2.0369685842828572e-05  2.0888128913345260e-05  2.2140233616262536e-05  2.3710615381321003e-05  2.5269490202576330e-05  2.6673257043249987e-05  2.7842711354706865e-05  2.8474913264786433e-05  2.8260281602147441e-05  2.7148994241482335e-05  2.5123224242921374e-05  2.2236450881725949e-05  1.8583452565959881e-05  1.4360000064909493e-05  9.9803779446849657e-06  5.6402185329726349e-06  1.7117032359334911e-06  -1.5559469417950799e-06  -3.9714088932189671e-06  2.1755927701552779e-05  1.2284840679811597e-05  1.3627566830626976e-06  2.3591341258171612e-05  2.9952918666519813e-05  4.2352897679560467e-06  2.3011421211701044e-05  2.3521139512546376e-05  1.9923785489555505e-05  1.0769515600512687e-05  -2.2282202402575593e-06  1.2532966995561156e-05  3.5184819503770502e-05  3.8359323246331506e-05  1.9851008308018868e-05  2.5577009199785931e-05  2.1533096132650958e-05  1.9172831023123144e-05  3.7204726625176396e-06  4.3677703971492015e-06  1.3902193436767250e-05  2.1442806117649133e-05  -1.7921965781014297e-06  1.8420905158766591e-05  2.2248930625198540e-05  2.1969329442967182e-05  2.2989743252169554e-05  2.2162828695272321e-05  2.2891510644536358e-05  2.2231657168378310e-05  2.2888416805494285e-05  2.1495978432322366e-05  2.1513802167413324e-05  2.1078804238146172e-05  2.1152732883014181e-05  2.0537858455164518e-05  2.0506149202484541e-05  2.1291976908724644e-05  2.0767102250355111e-05  2.1234519163825818e-05  2.0624167228794524e-05  1.9645264515846952e-05  1.9877886574054601e-05  2.0730694497840933e-05  1.9937718456260145e-05  1.8748148679435507e-05  2.0188966672110415e-05  1.7505614703778458e-05  1.6074551639345771e-05  1.4107607666779060e-05  1.2577292261159079e-05  1.5798999121233013e-05  2.0796643070650094e-05  2.3730517267857865e-05  1.5845744234636668e-05  1.2948494499388007e-05  8.7601219868660879e-06  8.6863350316171913e-06  1.4715065240488995e-05  1.2680604880498590e-05  1.8367273629238190e-05  1.7524053104552250e-05  2.3544924066615792e-05  2.2695890091610144e-05  2.8011123752131338e-05  2.5361326148495879e-05  2.9766292024989388e-05  2.5630719294339857e-05  2.7789779980680654e-05  2.3704754727529847e-05  2.1783009610793679e-05  1.8496624278499877e-05  1.8460275342925834e-05  1.4208628235153764e-05  1.6233135195849814e-05  1.3877529804795092e-05  1.2949137249753142e-05  1.5134730986040207e-05  1.7846106862702726e-05  1.1500742845083413e-05  1.8673255090821041e-05  1.9881718057474041e-05  2.1033413027083228e-05  2.1579034019440488e-05  1.6060464904989880e-05  2.2621853224952146e-05  1.2200315307524453e-05  9.9716495161574211e-06  3.2143740899745920e-05  1.9670822348731547e-05  2.5517379555867503e-05  2.9700209297647878e-05  4.4282059842475673e-06  4.9713367364761786e-06  1.9147187760415165e-05  2.2746383228139010e-05  2.2505106543318915e-05  3.2812933406623996e-05  3.5009748953413688e-05  2.0805333823445085e-05  9.3182075572110977e-06  1.0278521584185851e-05  9.1886766061393402e-06  6.0837901697526721e-06  1.3447288214876392e-05  9.0438452394226796e-06  2.1814440809607164e-05  2.8522226007756952e-05  2.7337625376098481e-05  7.3708457081526218e-06  2.7324288309768345e-06  6.1117844739283748e-06  9.2954302015328275e-06  1.9602357755258357e-05  1.8693026935883163e-05  1.7117618316954988e-05  2.0584030395259262e-05  9.6011170550640636e-06  1.1426504890507878e-05  2.0890052042485120e-05  1.8255229753752685e-05  2.1282805658722015e-05  2.0533208149923294e-05  2.1474935938597872e-05  2.1360230139430366e-05  2.1602222585791599e-05  2.2073077869241156e-05  3.2284663425695779e-05  1.6851477076073554e-05  2.1128056221825737e-05  1.6784724373716423e-05  1.9708002864312857e-05  8.1169831830060665e-06  1.8909377901295378e-05  1.8238918304340295e-05  2.4727301707576927e-05  2.5092000891787444e-05  2.3623883005440634e-05  2.3312123599763877e-05  2.1409220928604063e-05  2.0712211795534840e-05  2.3836559846612618e-05  2.3007725786126340e-05  2.1576508885678955e-05  1.8902532247472759e-05  2.3455836843361295e-05  2.5530997254420845e-05  1.5812143286055825e-05  2.3212641715560587e-05  1.7408501323493101e-05  1.8857125403328217e-05  2.2099425934953187e-05  1.4308147799238388e-05  3.8155913277993381e-05  3.2601354170321910e-05  3.6669264077642130e-05  7.5344100421443666e-06  3.3861400753732350e-05  3.3857563875538070e-05  1.4223378396374874e-06  2.8409324077851237e-05  6.9711500095198153e-06  6.3952773253690533e-06  -8.6198897223075092e-07  1.4402880077054952e-06  2.0986076700741101e-05  2.5960889191504640e-05  2.5363701293981285e-05  2.9780056764851576e-06  2.2147582491424452e-05  2.1234913710395990e-05  1.6936823769655501e-05  -3.0088140785142700e-06  1.7638879172259248e-05  1.8189522448148025e-05  2.1232344425633389e-05  1.6778132720513173e-05  1.5021691560093798e-05  8.5580039896136915e-06  2.2887635375149290e-05  1.8993094361334721e-05  1.2140291648172737e-05  8.4882457055576293e-06  3.9102269470338871e-05  4.9818830028869583e-06  1.7325933885832816e-06  2.1510567786784348e-05  2.9377861152374155e-06  1.8869408977213324e-05  2.2484946077240797e-05  1.9199720923641934e-05  5.8272353034362488e-06  2.1211966364648727e-05  2.4066985899416613e-05  1.9801882132363370e-05  3.1027096037568895e-05  1.4410219411904511e-05  5.6537242982027107e-06  2.8855026043633227e-05  7.0394970953210901e-06  2.7291004241167890e-06  1.8554920959958152e-05  2.2608930216718896e-06  1.0694302845547042e-05  2.0384410715038558e-05  2.1011567644292288e-05  -1.1862673593285436e-06  1.7889331682282359e-05  5.7672667610225902e-06  4.4054122938288105e-06  7.0448623212159596e-06  1.1763372440763250e-05  1.8943881645352598e-05  1.9439189221340367e-05  9.3530082386875795e-06  3.2595664637585157e-05  3.0738651153649781e-05  2.9648513635124891e-07  4.5488903089828748e-06  2.2134475419945201e-05  2.5584715426442986e-05  1.9863306498564534e-05  2.1438901999122641e-05  5.5092286503121656e-06  -1.3088195508910610e-08  2.4755689832716024e-05  2.2012091025060081e-05  1.8012955896527880e-05  2.0359132402804445e-05  2.0826819315425190e-05  2.0151738806499767e-05  1.9352148351139048e-05  2.3391901795829272e-05  1.9167876873572642e-05  2.1003149441667603e-05  2.2429652331799111e-05  1.3029127409111883e-05  2.0428303879756561e-05  3.5124469768435704e-05  1.9884605169238711e-05  1.5683316429367560e-05  2.2015580198760237e-05  1.1616360167742575e-05  2.1163674419267435e-05  1.3767994172489337e-05  2.0009659036030685e-05  1.8930276869306819e-05  2.3256799235276758e-05  2.1803637932177587e-05  1.2030272121371404e-05  1.9850639782737244e-05  3.4567620039492571e-05  2.0693878762488422e-05  6.6046591860064735e-06  6.5017521818528091e-06  1.2811931712571251e-05  1.4393713055183015e-05  9.1306208782026162e-06  1.6777628799229850e-05  2.7603861223614420e-05  2.0605415115257330e-05  1.5467916068016422e-05  3.0389212683808085e-05  2.1014864502195266e-05  2.1624711822305128e-05  3.5304416443597372e-05  2.9095077740328062e-05  3.1273217082741923e-05  2.1256052816526124e-05  -2.8953359324602991e-07  3.1438977349641620e-05  -6.6069622114066578e-06  9.2718712767685686e-06  3.2189498221247962e-05  4.2167638450568846e-05  2.2955535029033318e-05  1.5248366869934811e-05  1.1517533457134552e-05  4.6622208154047232e-06  2.6199324819708410e-05  6.0450037031398334e-06  2.6028337012488207e-05  6.2533157654456099e-06  7.7058931265190610e-06  5.5502670669929943e-06  7.0464584618175333e-07  -3.5242018828780957e-06  5.3586406815184965e-05  6.3061194847021908e-06  2.8293062720163308e-06  5.7579870091560599e-07  4.5883986368816277e-05  -2.3597525477769395e-06  2.8435126687076882e-06  2.5528833551712527e-05  4.3430594076911617e-06  3.6564050867905772e-06  1.2966361275170500e-05  2.3190199536082349e-05  -2.2057293117375053e-06  5.4275484315446645e-05  2.9818852279242473e-08  6.2499832074271969e-06  8.6625695829655842e-07  1.6987380906252268e-05  1.2638887561915370e-05  2.2885991249830605e-05  7.1593487083570427e-07  7.5240834141428291e-06  8.2973741368779968e-06  -3.9814844148811635e-07  4.2898468525705666e-06  4.1031261736639643e-06  9.6746451960358233e-06  -7.9389612025622359e-07  3.0419851982562174e-06  9.1620875709039429e-06  4.0672829213549646e-06  3.5879592699035721e-06  2.2669187242283309e-05  2.1813691375905937e-05  2.2561508132861024e-05  2.1186106650028442e-05  1.9530550660765349e-05  1.8835510671404349e-05  2.0601123476912520e-05  1.8004113442991924e-05  2.0062068317060104e-05  1.6777527461457861e-05  1.9342513742023673e-05  1.6705619772171630e-05  2.2577602060812738e-05  2.1867352790847374e-05  1.8532716985466564e-05  2.1259483167645844e-05  1.7386071552731580e-05  2.0196226929947111e-05  2.4286405045193052e-05  2.2324616946488154e-05  1.8420252471628859e-05  2.0054107899790954e-05  2.3472494893975059e-05  2.0801624369938404e-05  2.4675668818195850e-05  2.0661470411490649e-05  2.3411363848777032e-05  1.9145042027026126e-05  2.1055945712298265e-05  1.7164690804792347e-05  2.7224632268117076e-05  1.6752549769836770e-05  1.7847151757668488e-05  2.2115636957601186e-05  1.8083690478797923e-05  1.4076972855952603e-05  1.3609397707248366e-05  1.0179719556699442e-05  9.1123256257717047e-06  1.1843451735456489e-05  6.9569522594079245e-06  1.6516710138293678e-05  6.6460738175399318e-06  2.2321594621254516e-05  2.5985245928669128e-05  9.3664427678741461e-06  4.4506554648398728e-06  2.8285259019654752e-06  -1.3101869505313961e-07  -4.1051391748785393e-07  -3.0533251836748591e-06  -3.3238122618365994e-06  -5.6121976433996965e-06  -4.9602942571039966e-06  -6.7282356399868862e-06  -7.5819701626652940e-06  -7.6976523313089663e-06  -6.7222543095245465e-06  -7.1777658228859008e-06  -7.5974864988946502e-06  -6.4757344359938976e-06  -6.1106965449596332e-06  -4.9979156258827535e-06  -4.3236037560483707e-06  -2.8576226762189983e-06  -1.2780616500241909e-06  -1.5899230436550543e-07  2.5940890529166832e-06  2.8708754254888032e-06  6.7515701794405234e-06  -1.5581712363212881e-06  5.8258804496565421e-06  1.0167188133635377e-05  1.2077405940072238e-05  1.5522113838305727e-05  1.5364302390751203e-06  1.9389679162521534e-05  2.2307117952487511e-05  -4.6305197145172789e-06  1.7352117787665834e-05  2.3605747259385333e-05  2.9982272064325030e-05  3.0096563070278823e-05  3.7885513450819257e-05  3.6122247828065901e-05  4.3374315485647421e-05  4.1836828931678734e-05  3.2573635728178644e-05  3.6532517071760065e-05  4.5771640074432997e-05  3.9199302817093471e-05  4.5983652692363410e-05  3.9515359189290551e-05  4.5491035746141861e-05  3.7585908617736010e-05  4.1650162624163128e-05  3.4467681021947359e-05  3.5749464618339447e-05  3.0148142089522870e-05  3.0254107351729687e-05  2.5209367744156086e-05  2.4181369455327870e-05  2.0075249641717021e-05  1.8276817965866602e-05  1.5203978130489231e-05  1.2853333201168927e-05  2.4403820554979748e-05  1.5016603852958384e-05  1.0179762054361929e-05  1.5914542103063184e-05  1.1829583338104249e-05  1.1118631098455109e-05  6.7125618605918050e-06  6.0873757079295556e-06  2.9448174966591566e-05  6.7159316308352822e-06  3.4575896480784652e-06  3.3987664365016436e-06  1.2088604009818229e-06  1.9090950575415172e-07  -1.9978109603488419e-07  -4.9502999350201047e-07  -4.6247277870687552e-07  2.8405757006496060e-09  2.0217244701262194e-06  4.7651710326817455e-05  2.5601142276568790e-06  -4.9630002425356530e-06  1.4369569510646559e-05  4.8592450326414598e-07  1.7851783104720453e-06  3.1697518281229344e-07  3.6127262243993504e-05  1.6879870427105483e-05  3.1769259524471724e-05  1.1819287612775135e-05  4.0266573503278640e-06  5.1315322382115428e-05  1.4185302564421946e-05  1.8898171761992299e-06  4.7217571160692934e-06  4.0292469359044508e-06  7.5549097070254669e-06  6.4170495195538887e-06  1.0437994400457275e-05  1.2131465073937226e-05  1.5100292724320292e-05  1.2569070243751531e-05  1.7049017268198572e-05  1.3824142767636326e-05  1.7917419199948518e-05  2.1658589078563715e-05  2.1702043599966736e-05  2.5578623904023359e-05  2.4754201000990985e-05  2.0687620938406243e-05  2.2961493070527918e-05  1.8771674925195763e-05  2.6805587610702661e-05  2.4133184642954078e-05  2.7648768084966371e-05  2.4039419409360318e-05  2.7186895209798950e-05  2.3013105294746210e-05  2.5643853421349592e-05  2.0744966153367705e-05  1.6503586134752097e-05  1.4719207583135860e-05  3.0701902776339209e-05  1.7085668416451979e-05  2.5331964590387489e-05  2.9216458212559559e-05  2.1173524630019652e-05  2.3897862697129586e-05  1.8215393189261109e-05  2.7762146356056187e-05  2.5014212729447028e-05  2.1494391770779498e-05  2.7840947957568550e-05  1.6150864331944317e-05  1.2139548865865010e-05  1.0576381588601061e-05  1.2739288546681795e-05  1.4193523060303604e-05  1.0483855322696290e-05  1.8980214659589615e-06  8.6362974893111172e-06  8.4430705556656804e-06  1.7079421626396570e-05  1.5151965874997983e-05  -9.6908930548551674e-08  2.2848617568233339e-06  2.2031753348591930e-05  1.9080656771858703e-05  2.6150834367330166e-05  2.9013914808653707e-05  9.9972618350767502e-06  1.1632601169685088e-05  1.6507994014551401e-05  1.8438382219579058e-05  5.7277846475945421e-06  2.6538968651331386e-05  2.2559502578119609e-05  8.0022675212636075e-06  -3.8715865510894448e-08  4.9345165845791155e-06  2.0409226947972223e-05  1.3923963628927550e-05  1.8587190792835205e-05  4.6221631502990017e-06  2.4664519319287453e-05  4.2248218122326251e-05  3.9096457866318332e-05  4.7806168093231570e-05  2.4450692377653154e-05  8.3355225671696585e-06  2.8665436971137565e-05  3.9248007298181107e-06  3.2898426200757211e-05  1.0410845344527052e-05  4.9780624595151486e-06  8.7098641485892836e-06  1.0064347431912089e-06  -2.6958391636357956e-06  1.8589378768307702e-06  2.8688064042859558e-05  3.2142140375499065e-05  3.1949135637204019e-05  1.5772275502634972e-05  1.2831884758431063e-05  1.4931083582490989e-05  6.7393389706034446e-06  3.4375002226912098e-05  3.3746892485877348e-05  -4.1522382762523245e-06  -5.4585072298834429e-06  2.8620690000288009e-05  2.4579821363555169e-05  2.5195171005772939e-05  1.5390949400075497e-05  4.8370111676525804e-06  2.4050399609887320e-05  -4.5425057669490166e-06  1.6804340666938043e-05  2.3768908084653893e-06  5.7462986889160922e-07  2.3310686752590988e-05  2.1227872453544338e-05  3.1077298886421446e-05  1.4708175027376004e-05  1.1654600312275098e-05  1.7486759802981811e-05  2.4036578387436952e-05  2.8265939036127825e-05  3.5439275886638164e-05  3.9427568436761353e-05  4.5272917582054171e-05  3.2304745660306803e-05  1.5865858347683720e-05  1.3536668700918747e-05  -7.1623096363904109e-06  -7.7661962928379629e-06  -7.7065950274326609e-06  -6.7263473391576660e-06  -6.6349181610732403e-06  9.5523403691512867e-07  -2.903914260331673